 ******************************************************************
 *************  stfc/ccp5  program  library  package  ** D ********
 *************  daresbury laboratory general purpose  *** L *******
 **         **  classical molecular dynamics program  **** \ ******
 ** DL_POLY **  authors:   i.t.todorov   &   w.smith  ***** P *****
 **         **  version: 4.08    /      march  2016   ****** O ****
 *************  execution on            8 process(es) ******* L ***
 *************  contributors' list:                   ******** Y **
 *************  ------------------------------------  *************
 *************  i.j.bush, h.a.boateng, r.davidchak,   *************
 *************  m.a.seaton, a.v.brukhno, a.m.elena    *************
 ******************************************************************

 ******************************************************************
 *** birthday:  Mar 14 2016@15:05:29                           ****
 ***  machine:  lapito.dl.ac.uk                                ****
 ***  builder:  dr faustroll                                   ****
 *** compiler:  gfortran                                       ****
 ***  version:  5.3.1 20151207 [gcc-5-branch revision 231355]  ****
 ***      MPI:  3.0                                            ****
 ***  library: Open MPI v1.10.1, package: Open MPI alin@lapito ****
 ***  library:  Distribution, ident: 1.10.1, repo rev: v1.10.0 ****
 ***  library: -178-gb80f802, Nov 03, 2015                     ****
 ******************************************************************

 ******************************************************************
 ****  ~~~~~~~~~~~~~~~~~~~~~~~~~~~~~~~~~~~~~~~~~~~~~~~~~~~~~~  ****
 ****  Please do cite `J. Mater. Chem.', 16, 1911-1918 (2006)  ****
 ****  ^^^^^^^^^^^^^^^^^^^^^^^^^^^^^^^^^^^^^^^^^^^^^^^^^^^^^^  ****
 ****  when publishing research data obtained using DL_POLY_4  ****
 ****  ^^^^^^^^^^^^^^^^^^^^^^^^^^^^^^^^^^^^^^^^^^^^^^^^^^^^^^  ****
 ******************************************************************


 I/O read method: parallel by using MPI-I/O (assumed)
 I/O readers (assumed)                   4
 I/O read batch size (assumed)     2000000
 I/O read buffer size (assumed)      20000
 I/O parallel read error checking off (assumed)

 I/O write method: parallel by using MPI-I/O (assumed)
 I/O write type: data sorting on (assumed)
 I/O writers (assumed)                   8
 I/O write batch size (assumed)    2000000
 I/O write buffer size (assumed)     20000
 I/O parallel write error checking off (assumed)


 node/domain decomposition (x,y,z):      2     2     2

 cutoffs driven limit on largest possible decomposition:   216 nodes/domains (6,6,6)

 cutoffs driven limit on largest balanced decomposition:    27 nodes/domains (3,3,3)

 link-cell decomposition 1 (x,y,z):      3     3     3

 *** pre-scanning stage (set_bounds) DONE ***

 time elapsed since job start:        0.070 sec

 **********************************************************************************************************************************
 **********************************************************************************************************************************
 **********************************************************************************************************************************
 ************************     Calcite Nanoparticles in Water                                               ************************
 **********************************************************************************************************************************
 **********************************************************************************************************************************
 **********************************************************************************************************************************


 SIMULATION CONTROL PARAMETERS

 scaled restart requested (starting a new simulation)

 simulation temperature (K)          3.1000E+02

 simulation pressure (katms)         1.0000E-03

 Integration : Velocity Verlet
 Ensemble : NPT isotropic Nose-Hoover (Melchionna)
 thermostat relaxation time (ps)     2.0000E-02
 barostat relaxation time   (ps)     3.0000E-01

 selected number of timesteps           20

 equilibration period (steps)           10

 temperature scaling on (during equilibration)
 temperature scaling interval           20

 real space cutoff (Angs)            1.0100E+01

 Electrostatics : Smooth Particle Mesh Ewald
 Ewald sum precision                 1.0000E-06
 Ewald convergence parameter (A^-1)  3.1748E-01
 Ewald kmax1 kmax2 kmax3   (x2)    40   40   40
 DaFT adjusted kmax values (x2)    40   40   40
 B-spline interpolation order            8

 statistics file interval                5

 data printing interval (steps)          5

 warning issued    200

 *** warning - CONFIG contains positions only !!! ***
 *** clean start is assumed !!! ***


 Extended Coulombic eXclusion : NO

 vdw cutoff reset to (Angs)          1.0100E+01

 variable simulation timestep (ps)   1.0000E-04

 controls for variable timestep
 minimum distance Dmin (Angs)        3.0000E-02
 maximum distance Dmax (Angs)        1.0000E-01

 data dumping interval (steps)        1000

 subcelling threshold density        5.0000E+01

 allocated job run time   (s)        1.0000E+04

 allocated job close time (s)        2.0000E+01


 SYSTEM SPECIFICATION

 energy units = eV


 number of molecular types               3


 molecular species type                  1

 name of species:             Ca                                      

 number of molecules                   600

 number of atoms/sites                   1

 atomic characteristics:

               site    name             mass         charge      repeat      freeze

                  1    Ca            40.100000       2.000000         1         0


 molecular species type                  2

 name of species:             CO3                                     

 number of molecules                   600

 number of atoms/sites                   4

 atomic characteristics:

               site    name             mass         charge      repeat      freeze

                  1    C_CaCO3       12.000000       1.135000         1         0
                  2    O_CaCO3       15.800000      -1.045000         1         0
                  3    O_CaCO3       15.800000      -1.045000         1         0
                  4    O_CaCO3       15.800000      -1.045000         1         0


 number of chemical bonds                3

 chemical bond details:

                  unit     key     index     index                            parameters

                     1    -mrs         1         2         4.710000       1.180000       3.800000       1.500000
                     2    -mrs         1         3         4.710000       1.180000       3.800000       1.500000
                     3    -mrs         1         4         4.710000       1.180000       3.800000       1.500000


 number of bond angles                   3

 bond angle details:

                  unit     key     index     index     index       f-const        angle

                     1    -hrm         2         1         3       1.690000     120.000000       0.000000       0.000000       0.000000       0.000000
                     2    -hrm         2         1         4       1.690000     120.000000       0.000000       0.000000       0.000000       0.000000
                     3    -hrm         3         1         4       1.690000     120.000000       0.000000       0.000000       0.000000       0.000000


 molecular species type                  3

 name of species:             WATER                                   

 number of molecules                  6904

 number of atoms/sites                   3

 atomic characteristics:

               site    name             mass         charge      repeat      freeze

                  1    O_tip3p       15.800000      -0.834000         1         0
                  2    H_tip3p        1.008000       0.417000         1         0
                  3    H_tip3p        1.008000       0.417000         1         0


 number of chemical bonds                2

 chemical bond details:

                  unit     key     index     index                            parameters

                     1    harm         1         2        23.990749       0.957200       0.000000       0.000000
                     2    harm         1         3        23.990749       0.957200       0.000000       0.000000


 number of bond angles                   1

 bond angle details:

                  unit     key     index     index     index       f-const        angle

                     1    harm         2         1         3       4.338291     104.520000       0.000000       0.000000       0.000000       0.000000


 total number of molecules            8104

 total number of sites                   8


 number of specified vdw potentials                5

       pair     atom 1  atom 2     key                              parameters

          1     O_CaCO3 O_CaCO3    buck         16372.000000            0.213000            3.470000            0.000000            0.000000
          2     O_CaCO3 Ca         buck          1550.000000            0.297000            0.000000            0.000000            0.000000
          3     Ca      O_tip3p    buck          1186.600000            0.297000            0.000000            0.000000            0.000000
          4     O_tip3p O_tip3p    12-6         25246.059000           25.805241            0.000000            0.000000            0.000000
          5     O_CaCO3 O_tip3p    nm               0.001300            9.000000            6.000000            4.630000            0.000000

 warning issued    120

 *** warning - unspecified atom-atom interactions set to zero !!! ***


 configuration file name: 

          CONFIG                                                                  


 selected image convention               3


 simulation cell vectors

       62.6194594635        0.0000000000        0.0000000000
        0.0000000000       62.6194594635        0.0000000000
        0.0000000000        0.0000000000       62.6194594635


 system volume            245543.218023    

 *** all reading and connectivity checks DONE ***

 time elapsed since job start:        0.098 sec


 long-range correction for: vdw energy    -0.179244E+02
                          : vdw pressure  -0.229181E+00

 *** initialisation and haloing DONE ***

 time elapsed since job start:        0.106 sec

 //==============================================================\\
 ||                                                              ||
 ||           SUMMARY  OF  TOPOLOGICAL  DECOMPOSITION            ||
 ||                                                              ||
 ||--------------------------------------------------------------||
 ||  INTERACTION  OR  TYPE  |  GRAND TOTAL | Fully/Partly FROZEN ||
 ||-------------------------+--------------+---------------------||
 ||  all particles/sites    |       23712  |  F            0     ||
 ||  free particles         |       23712  |  F            0     ||
 ||  core-shell units       |           0  |  P            0     ||
 ||  constraint bond units  |           0  |  F            0     ||
 ||  PMF units              |           0  |  P         NONE     ||
 ||  rigid body units       |           0  |  F            0     ||
 ||  tethered atom units    |           0  |  F            0     ||
 ||  chemical bond units    |       15608  |  F            0     ||
 ||  bond angle units       |        8704  |  F            0     ||
 ||  dihedral angle units   |           0  |  F            0     ||
 ||  inversion angle units  |           0  |  F            0     ||
 \\==============================================================//


 *** bookkeeping DONE ***

 time elapsed since job start:        0.112 sec


 degrees of freedom break-down list
 ----------------------------------
 free particles               71136
 centre of mass                  -3
 non-periodicity                  0
 frozen free particles            0
 shell-pseudo                     0
 constrained                      0
 RB translational                 0
 RB rotational                    0
 ----------------------------------
 total (real)                 71133

 *** temperature setting DONE ***

 time elapsed since job start:        0.136 sec


 sample of starting configuration on node zero

        i       x(i)        y(i)        z(i)       vx(i)       vy(i)       vz(i)


        1 -9.2336E+00 -1.6689E+01 -1.4426E+01 -4.6575E-02 -6.3759E+00 -1.0364E+00
      675 -1.8193E+01 -9.9717E+00 -1.3928E+01  1.9355E+00 -8.8433E-01 -3.9642E+00
      824 -1.9278E+01 -1.6510E+01 -2.4644E+01  4.6451E+00  1.8142E+00  3.9877E+00
     3074 -2.1569E+01 -2.5394E+01 -2.3231E+01 -2.8221E+00 -4.9277E+00  4.0657E+00
     3228 -1.5755E+01 -2.9698E+01 -2.7708E+01  1.1653E-02 -9.4741E-02  2.4194E+00
     3382 -1.0840E+01 -1.9613E+01 -2.7281E+01  5.5434E+00 -2.9416E+00 -8.0685E-02
     3536 -2.2451E+01 -2.8961E+01 -6.5694E+00  5.9612E+00  1.5655E+01 -1.2481E+01
     3690 -2.3599E+01 -5.0029E+00 -2.2663E+01  4.9244E+00  1.8364E+00  9.9562E+00
     3843 -6.0329E+00 -8.8611E+00 -1.7893E+01 -1.7650E+01 -5.3452E-01  1.1105E+00
     3994 -1.1698E+01 -1.5182E+00 -1.0882E+01 -3.7657E+00 -2.5055E+00 -1.7521E+00
     4157 -1.2108E+01 -1.7422E+01 -2.9757E+01  4.8024E+00  3.4032E+01 -4.3759E+00
     4316 -1.6807E+00 -1.6485E+01 -2.6662E+01  2.4939E-01  1.5607E+01  6.1294E-01
     4480 -8.2146E+00 -8.7285E+00 -3.3856E-01  2.2179E+00 -2.8949E+00 -6.6375E+00
     4634 -2.3186E+01 -3.0331E+01 -1.7080E+00 -1.1533E+01 -1.5001E+01 -8.2704E+00
     4789 -2.0574E+01 -3.0885E+01 -1.5037E+01 -5.1351E-01  3.3334E+00 -8.1406E+00
     4942 -1.5695E+01 -2.6052E+01 -5.9271E+00  6.6885E-01  3.6977E+00 -1.9028E+00
     5094 -2.4683E+01 -1.4472E+01 -3.0214E+01  1.5497E+01 -7.2571E+00 -1.2556E+01
     5250 -2.3405E+01 -1.1975E+00 -2.4098E+01  1.9068E+01  1.6253E+01  1.7321E+01
     5409 -2.5224E+01 -1.2109E+01 -2.3464E+01 -2.5144E+00  1.6990E+01  5.0527E+00
     5561 -8.1729E+00 -3.3087E+00 -2.6478E+00  8.4398E+00 -6.2932E+00 -1.8282E+01



 time elapsed since job start:        0.136 sec

 forces evaluated at (re)start for VV integration...

 ----------------------------------------------------------------------------------------------------------------------------------

          step     eng_tot    temp_tot     eng_cfg     eng_src     eng_cou     eng_bnd     eng_ang     eng_dih     eng_tet
      time(ps)      eng_pv    temp_rot     vir_cfg     vir_src     vir_cou     vir_bnd     vir_ang     vir_con     vir_tet
      cpu  (s)      volume    temp_shl     eng_shl     vir_shl       alpha        beta       gamma     vir_pmf       press

 ----------------------------------------------------------------------------------------------------------------------------------
             0 -3.8373E+04  3.1000E+02 -3.9323E+04  4.5496E+03 -3.6046E+04 -8.0140E+03  1.8714E+02  0.0000E+00  0.0000E+00
       0.00000 -3.8373E+04  0.0000E+00  2.2921E+03 -4.9599E+04  3.6040E+04  1.5851E+04  0.0000E+00  0.0000E+00  0.0000E+00
         0.347  2.4554E+05  0.0000E+00  0.0000E+00  0.0000E+00  9.0000E+01  9.0000E+01  9.0000E+01  0.0000E+00 -8.4107E-01

       rolling  0.0000E+00  0.0000E+00  0.0000E+00  0.0000E+00  0.0000E+00  0.0000E+00  0.0000E+00  0.0000E+00  0.0000E+00
      averages  0.0000E+00  0.0000E+00  0.0000E+00  0.0000E+00  0.0000E+00  0.0000E+00  0.0000E+00  0.0000E+00  0.0000E+00
                0.0000E+00  0.0000E+00  0.0000E+00  0.0000E+00  0.0000E+00  0.0000E+00  0.0000E+00  0.0000E+00  0.0000E+00
 ----------------------------------------------------------------------------------------------------------------------------------

 timestep increased, new timestep is:     2.0000E-04


 timestep increased, new timestep is:     4.0000E-04


 timestep increased, new timestep is:     8.0000E-04

 ----------------------------------------------------------------------------------------------------------------------------------

          step     eng_tot    temp_tot     eng_cfg     eng_src     eng_cou     eng_bnd     eng_ang     eng_dih     eng_tet
      time(ps)      eng_pv    temp_rot     vir_cfg     vir_src     vir_cou     vir_bnd     vir_ang     vir_con     vir_tet
      cpu  (s)      volume    temp_shl     eng_shl     vir_shl       alpha        beta       gamma     vir_pmf       press

 ----------------------------------------------------------------------------------------------------------------------------------
             1 -3.8372E+04  3.0813E+02 -3.9317E+04  4.5499E+03 -3.6047E+04 -8.0072E+03  1.8735E+02  0.0000E+00  0.0000E+00
       0.00080 -3.8372E+04  0.0000E+00  2.3270E+03 -4.9601E+04  3.6041E+04  1.5887E+04  0.0000E+00  0.0000E+00  0.0000E+00
         0.562  2.4554E+05  0.0000E+00  0.0000E+00  0.0000E+00  9.0000E+01  9.0000E+01  9.0000E+01  0.0000E+00 -9.4082E-01

       rolling -3.8372E+04  3.0813E+02 -3.9317E+04  4.5499E+03 -3.6047E+04 -8.0072E+03  1.8735E+02  0.0000E+00  0.0000E+00
      averages -3.8372E+04  0.0000E+00  2.3270E+03 -4.9601E+04  3.6041E+04  1.5887E+04  0.0000E+00  0.0000E+00  0.0000E+00
                2.4554E+05  0.0000E+00  0.0000E+00  0.0000E+00  9.0000E+01  9.0000E+01  9.0000E+01  0.0000E+00 -9.4082E-01
 ----------------------------------------------------------------------------------------------------------------------------------
             5 -3.8372E+04  2.9870E+02 -3.9287E+04  4.5595E+03 -3.6075E+04 -7.9672E+03  1.9613E+02  0.0000E+00  0.0000E+00
       0.00400 -3.8371E+04  0.0000E+00  2.5657E+03 -4.9683E+04  3.6069E+04  1.6179E+04  0.0000E+00  0.0000E+00  0.0000E+00
         1.331  2.4553E+05  0.0000E+00  0.0000E+00  0.0000E+00  9.0000E+01  9.0000E+01  9.0000E+01  0.0000E+00 -1.5773E+00

       rolling -3.8372E+04  3.0169E+02 -3.9296E+04  4.5539E+03 -3.6060E+04 -7.9821E+03  1.9128E+02  0.0000E+00  0.0000E+00
      averages -3.8372E+04  0.0000E+00  2.4624E+03 -4.9635E+04  3.6054E+04  1.6043E+04  0.0000E+00  0.0000E+00  0.0000E+00
                2.4554E+05  0.0000E+00  0.0000E+00  0.0000E+00  9.0000E+01  9.0000E+01  9.0000E+01  0.0000E+00 -1.3162E+00
 ----------------------------------------------------------------------------------------------------------------------------------
            10 -3.8339E+04  3.1000E+02 -3.9286E+04  4.5804E+03 -3.6096E+04 -7.9714E+03  2.0151E+02  0.0000E+00  0.0000E+00
       0.00800 -3.8336E+04  0.0000E+00  2.1324E+03 -4.9875E+04  3.6091E+04  1.5917E+04  0.0000E+00  0.0000E+00  0.0000E+00
         2.249  2.4546E+05  0.0000E+00  0.0000E+00  0.0000E+00  9.0000E+01  9.0000E+01  9.0000E+01  0.0000E+00 -4.9848E-01

       rolling -3.8369E+04  3.0312E+02 -3.9297E+04  4.5630E+03 -3.6076E+04 -7.9798E+03  1.9594E+02  0.0000E+00  0.0000E+00
      averages -3.8368E+04  0.0000E+00  2.4110E+03 -4.9716E+04  3.6070E+04  1.6057E+04  0.0000E+00  0.0000E+00  0.0000E+00
                2.4551E+05  0.0000E+00  0.0000E+00  0.0000E+00  9.0000E+01  9.0000E+01  9.0000E+01  0.0000E+00 -1.1870E+00
 ----------------------------------------------------------------------------------------------------------------------------------

 switching off temperature scaling at step 10

 ----------------------------------------------------------------------------------------------------------------------------------
            15 -3.8339E+04  3.0794E+02 -3.9279E+04  4.5819E+03 -3.6060E+04 -8.0072E+03  2.0582E+02  0.0000E+00  0.0000E+00
       0.01200 -3.8335E+04  0.0000E+00  1.5603E+03 -4.9901E+04  3.6054E+04  1.5407E+04  0.0000E+00  0.0000E+00  0.0000E+00
         3.165  2.4546E+05  0.0000E+00  0.0000E+00  0.0000E+00  9.0000E+01  9.0000E+01  9.0000E+01  0.0000E+00  7.0290E-01

       rolling -3.8359E+04  3.0396E+02 -3.9289E+04  4.5698E+03 -3.6076E+04 -7.9804E+03  1.9843E+02  0.0000E+00  0.0000E+00
      averages -3.8357E+04  0.0000E+00  2.1905E+03 -4.9780E+04  3.6071E+04  1.5900E+04  0.0000E+00  0.0000E+00  0.0000E+00
                2.4550E+05  0.0000E+00  0.0000E+00  0.0000E+00  9.0000E+01  9.0000E+01  9.0000E+01  0.0000E+00 -7.0251E-01
 ----------------------------------------------------------------------------------------------------------------------------------
            20 -3.8338E+04  2.9632E+02 -3.9241E+04  4.5660E+03 -3.6035E+04 -7.9709E+03  1.9921E+02  0.0000E+00  0.0000E+00
       0.01600 -3.8333E+04  0.0000E+00  2.2052E+03 -4.9768E+04  3.6030E+04  1.5943E+04  0.0000E+00  0.0000E+00  0.0000E+00
         4.080  2.4547E+05  0.0000E+00  0.0000E+00  0.0000E+00  9.0000E+01  9.0000E+01  9.0000E+01  0.0000E+00 -8.3487E-01

       rolling -3.8354E+04  3.0338E+02 -3.9281E+04  4.5705E+03 -3.6068E+04 -7.9838E+03  1.9987E+02  0.0000E+00  0.0000E+00
      averages -3.8351E+04  0.0000E+00  2.1099E+03 -4.9791E+04  3.6062E+04  1.5839E+04  0.0000E+00  0.0000E+00  0.0000E+00
                2.4549E+05  0.0000E+00  0.0000E+00  0.0000E+00  9.0000E+01  9.0000E+01  9.0000E+01  0.0000E+00 -5.3729E-01
 ----------------------------------------------------------------------------------------------------------------------------------


 run terminating...  elapsed cpu time:        4.081 sec, job time:    10000.000 sec, close time:       20.000 sec



 sample of final configuration on node zero

        i       x(i)        y(i)        z(i)       vx(i)       vy(i)       vz(i)       fx(i)       fy(i)       fz(i)


        1 -9.2462E+00 -1.6804E+01 -1.4441E+01 -1.5667E+00 -7.2334E+00 -5.1902E-01 -3.3122E+03  6.6476E+03  3.7869E+03
      675 -1.8163E+01 -9.9621E+00 -1.3957E+01  2.0949E+00  4.1463E-01  2.8333E+00 -4.8180E+03  6.8721E+03  1.2860E+04
      824 -1.9315E+01 -1.6543E+01 -2.4619E+01 -4.5317E+00  1.4054E+00  6.6594E+00  7.5865E+03  1.2920E+04  1.2694E+04
     3074 -2.1629E+01 -2.5840E+01 -2.3217E+01 -2.4001E+01 -3.2408E+01 -1.4189E+01 -3.2780E+02  3.2669E+03  2.0763E+03
     3228 -1.5707E+01 -2.9798E+01 -2.7575E+01 -2.2198E+00  1.1815E+00  4.9585E+00  2.3543E+02 -8.0880E+02 -2.2601E+03
     3382 -1.0763E+01 -1.9674E+01 -2.7318E+01  3.7709E+00 -5.3431E+00 -4.8320E+00 -1.9330E+02 -6.1641E+03 -1.1917E+04
     3536 -2.2470E+01 -2.9074E+01 -6.7034E+00 -1.7334E+01 -3.7501E+01 -2.0727E+01 -1.6605E+03 -9.6456E+03  2.9005E+03
     3690 -2.3700E+01 -5.2840E+00 -2.2602E+01 -2.3418E+01 -8.3846E+00  5.3654E+00  3.2963E+03 -9.7578E+02 -7.6929E+02
     3843 -6.0636E+00 -8.9681E+00 -1.7770E+01  1.2671E+01 -2.4391E+01  7.7382E+00 -2.9278E+03 -2.2857E+03  1.0707E+03
     3994 -1.1773E+01 -1.5382E+00 -1.0935E+01 -3.4268E+00  5.5876E-01 -4.5742E+00 -7.5359E+03  3.9029E+03 -7.3899E+03
     4157 -1.2156E+01 -1.7283E+01 -2.9815E+01 -2.0378E+01 -1.0268E+01  6.2725E+00 -3.3186E+03 -1.8235E+03  1.8215E+03
     4316 -1.8324E+00 -1.6346E+01 -2.6774E+01 -1.1709E+00  7.1624E+00 -1.0499E+01  2.2447E+03 -1.3339E+04  3.0772E+03
     4480 -8.1985E+00 -8.7988E+00 -4.2128E-01  6.2187E-01 -6.6542E+00 -3.8356E+00 -2.7000E+03  7.5187E+03  4.3202E+03
     4634 -2.3162E+01 -3.0665E+01 -1.8232E+00  1.4320E+01  4.4498E+00  5.8928E-01  6.4032E+02  3.3803E+03  6.4208E+02
     4789 -2.0560E+01 -3.0803E+01 -1.5142E+01  1.8468E+00  4.8246E+00 -5.9448E+00  6.7229E+03  1.2527E+04  2.2695E+03
     4942 -1.5694E+01 -2.5976E+01 -5.9490E+00  6.3632E-02  5.4077E+00 -5.6291E-01  5.2225E+03  5.5736E+03  2.2731E+02
     5094 -2.4687E+01 -1.4411E+01 -3.0233E+01 -9.8215E+00  3.0352E+01 -1.4692E+00  4.9545E+02  8.6442E+02 -5.1137E+03
     5250 -2.3339E+01 -1.1253E+00 -2.4024E+01 -1.7235E+01 -8.5774E+00  3.4344E+00  1.6254E+03 -4.1269E+03 -6.7703E+03
     5409 -2.5505E+01 -1.2093E+01 -2.3508E+01 -2.3770E+01 -7.6538E+00 -2.5492E+01  4.2251E+03  2.7377E+03  4.7501E+03
     5561 -8.2094E+00 -3.4042E+00 -2.8155E+00 -1.3577E+01  1.6804E+01 -1.7830E+01  2.2736E+03  3.3009E+03  4.1947E+03


 run terminated after       20 steps (     0.016 ps), final averages calculated over       10 steps (     0.008 ps).


 ----------------------------------------------------------------------------------------------------------------------------------

          step     eng_tot    temp_tot     eng_cfg     eng_src     eng_cou     eng_bnd     eng_ang     eng_dih     eng_tet
      time(ps)      eng_pv    temp_rot     vir_cfg     vir_src     vir_cou     vir_bnd     vir_ang     vir_con     vir_tet
      cpu  (s)      volume    temp_shl     eng_shl     vir_shl       alpha        beta       gamma     vir_pmf       press

 ----------------------------------------------------------------------------------------------------------------------------------
            10 -3.8339E+04  3.0363E+02 -3.9265E+04  4.5779E+03 -3.6059E+04 -7.9878E+03  2.0381E+02  0.0000E+00  0.0000E+00
       0.00800 -3.8335E+04  0.0000E+00  1.8089E+03 -4.9866E+04  3.6054E+04  1.5621E+04  0.0000E+00  0.0000E+00  0.0000E+00
         4.157  2.4547E+05  0.0000E+00  0.0000E+00  0.0000E+00  9.0000E+01  9.0000E+01  9.0000E+01  0.0000E+00  1.1238E-01

       r.m.s.   4.0059E-01  3.8754E+00  1.2705E+01  6.3033E+00  1.9904E+01  1.7213E+01  2.3225E+00  0.0000E+00  0.0000E+00
      fluctu-   8.4435E-01  0.0000E+00  2.0454E+02  5.0596E+01  1.9896E+01  1.7376E+02  0.0000E+00  0.0000E+00  0.0000E+00
      ations    4.0006E+00  0.0000E+00  0.0000E+00  0.0000E+00  0.0000E+00  0.0000E+00  0.0000E+00  0.0000E+00  4.8227E-01
 ----------------------------------------------------------------------------------------------------------------------------------

 Extended energy:        -3.8934E+00      r.m.s. fluctuations:    6.5328E-01

 <P*V> term:              6.2613E+01      r.m.s. fluctuations:    3.4015E-04

 ----------------------------------------------------------------------------------------------------------------------------------


            Approximate 3D Diffusion Coefficients and square root of MSDs

            atom         DC (10^-9 m^2 s^-1)   Sqrt[MSD] (Ang)

            Ca                0.0000E+00          2.1799E-02
            C_CaCO3           3.3784E-02          3.4689E-02
            O_CaCO3           0.0000E+00          3.2896E-02
            O_tip3p           0.0000E+00          3.4236E-02
            H_tip3p           0.0000E+00          1.1729E-01


                Average pressure tensor  (katms)                              r.m.s. fluctuations

          -1.3767E+00  9.3795E-01  3.8669E-01                          3.7904E-01  2.2431E-02  1.0655E-01
           9.3795E-01  1.5255E+00 -4.1034E-01                          2.2431E-02  7.5740E-01  1.7816E-01
           3.8669E-01 -4.1034E-01  1.8829E-01                          1.0655E-01  1.7816E-01  5.0777E-01

            trace/3    1.1238E-01


                Average cell vectors     (Angs)                               r.m.s. fluctuations

       62.6128832332        0.0000000000        0.0000000000           3.4015E-04  0.0000E+00  0.0000E+00
        0.0000000000       62.6128832332        0.0000000000           0.0000E+00  3.4015E-04  0.0000E+00
        0.0000000000        0.0000000000       62.6128832332           0.0000E+00  0.0000E+00  3.4015E-04



 time elapsed since job start:        4.157 sec



 *************************************************************************************************************************
 **************                                                                                             **************
 **************  Thank you for using the DL_POLY_4 package in your work.  Please, acknowledge our efforts   **************
 **************                                                                                             **************
 **************  by including the following references when publishing data obtained using DL_POLY_4:       **************
 **************                                                                                             **************
 **************  I.T. Todorov, W. Smith, K. Trachenko & M.T. Dove, `J. Mater. Chem.', 16, 1911-1918 (2006)  **************
 **************  I.J. Bush, I.T. Todorov & W. Smith, `Comp. Phys. Commun.', 175, 323-329 (2006)             **************
 **************                                                                                             **************
 *************************************************************************************************************************

