 ******************************************************************
 *************  stfc/ccp5  program  library  package  ** D ********
 *************  daresbury laboratory general purpose  *** L *******
 **         **  classical molecular dynamics program  **** \ ******
 ** DL_POLY **  authors:   i.t.todorov   &   w.smith  ***** P *****
 **         **  version:   4.09.3  /  november  2019  ****** O ****
 *************  execution on           1 process(es)  ******* L ***
 *************  contributors' list:                   ******** Y **
 *************  ------------------------------------  *************
 *************  i.j.bush, h.a.boateng, m.a.seaton     *************
 *************  a.v.brukhno, a.m.elena, r.davidchak   *************
 *************  s.l.daraszewicz, g.khara, s.t.murphy  *************
 *************  a.b.g.chalk, i.scivetti               *************
 ******************************************************************

 ******************************************************************
 **** birthday: Jan 29 2020 @ 13:24:48                         ****
 ****  machine: javli-Lenovo-IdeaPad-L340-15IWL                ****
 ****  builder: dr faustroll                                   ****
 **** compiler: gfortran v7.4.0                                ****
 ****      MPI: v3.1                                           ****
 **** MPI libs: Open MPI v4.0.2, package: Open MPI root@javli- ****
 **** MPI libs: Lenovo-IdeaPad-L340-15IWL Distribution, ident: ****
 **** MPI libs:  4.0.2, repo rev: v4.0.2, Oct 07, 2019         ****
 **** executed: 2020-02-02  @  15:28:17.862  (GMT-08:00)       ****
 ******************************************************************

 ******************************************************************
 ****  ~~~~~~~~~~~~~~~~~~~~~~~~~~~~~~~~~~~~~~~~~~~~~~~~~~~~~~  ****
 ****  Please do cite `J. Mater. Chem.', 16, 1911-1918 (2006)  ****
 ****  ^^^^^^^^^^^^^^^^^^^^^^^^^^^^^^^^^^^^^^^^^^^^^^^^^^^^^^  ****
 ****  when publishing research data obtained using DL_POLY_4  ****
 ****  ^^^^^^^^^^^^^^^^^^^^^^^^^^^^^^^^^^^^^^^^^^^^^^^^^^^^^^  ****
 ******************************************************************


 I/O read method: parallel by using MPI-I/O (assumed)
 I/O readers (assumed)                   1
 I/O read batch size (assumed)     2000000
 I/O read buffer size (assumed)      20000
 I/O parallel read error checking off (assumed)

 I/O write method: parallel by using MPI-I/O (assumed)
 I/O write type: data sorting on (assumed)
 I/O writers (assumed)                   1
 I/O write batch size (assumed)    2000000
 I/O write buffer size (assumed)     20000
 I/O parallel write error checking off (assumed)

 *** warning - DD cutoff check: rcut=Max(rcut,rvdw,rmet,rkim,rcbnd,2.0_wp*rcter+1.0e-6_wp) ! ***

 warning issued     40

 *** warning - tentative cutoff reset to   8.200 Angstroms !!! ***


 *** warning - metal interaction cutoff check: rmet=Max(rcut,rvdw) ! ***

 warning issued     40

 *** warning - tentative cutoff reset to   8.200 Angstroms !!! ***


 *** warning - metal interactions cutoff check: rmet=cut ! ***

 warning issued     40

 *** warning - tentative cutoff reset to   8.200 Angstroms !!! ***



 node/domain decomposition (x,y,z):      1     1     1

 cutoffs driven limit on largest possible decomposition:   729 nodes/domains (9,9,9)

 cutoffs driven limit on largest balanced decomposition:    64 nodes/domains (4,4,4)

 link-cell decomposition 1 (x,y,z):      9     9     9

 cutoffs driven limit on largest possible decomposition:   512 nodes/domains (8,8,8)

 cutoffs driven limit on largest balanced decomposition:    64 nodes/domains (4,4,4)

 link-cell decomposition 1 (x,y,z):      8     8     8

 *** pre-scanning stage (set_bounds) DONE ***

 time elapsed since job start:        0.265 sec

 **********************************************************************************************************************************
 **********************************************************************************************************************************
 **********************************************************************************************************************************
 ************************     Cu3Au ALLOY (32000 ATOMS)                                                    ************************
 **********************************************************************************************************************************
 **********************************************************************************************************************************
 **********************************************************************************************************************************


 SIMULATION CONTROL PARAMETERS

 simulation pressure (katms)         1.0000E-03

 simulation temperature (K)          3.0000E+02

 Integration : Velocity Verlet
 Ensemble : NVT Nose-Hoover
 thermostat relaxation time (ps)     2.0000E-01

 scaled restart requested (starting a new simulation)

 equilibration period (steps)           10

 selected number of timesteps           20

 temperature scaling on (during equilibration)
 temperature scaling interval            7

 real space cutoff (Angs)            8.2000E+00

 data printing interval (steps)          2

 statistics file interval                2

 Electrostatics switched off!!!

 cutoff padding reset to (Angs)      3.2000E-01

 vdw potential terms switched off

 fixed simulation timestep (ps)      1.0000E-03

 data dumping interval (steps)         500

 subcelling threshold density        5.0000E+01

 allocated job run time   (s)        1.0000E+03

 allocated job close time (s)        1.0000E+01


 SYSTEM SPECIFICATION

 energy units = eV


 number of molecular types               1


 molecular species type                  1

 name of species:             Copper-Gold                             

 number of molecules                  8000

 number of atoms/sites                   4

 atomic characteristics:

               site    name             mass         charge      repeat      freeze

                  1    Au           196.967000       0.000000         1         0
                  2    Cu            63.546000       0.000000         3         0


 total number of molecules            8000

 total number of sites                   4


 number of specified metal potentials              3

       pair     atom 1  atom 2     key                              parameters

          1     Cu      Cu         gupt        0.085500       2.556000      10.960000       1.224000       2.278000       0.000000       0.000000       0.000000       0.000000
          2     Cu      Au         gupt        0.153900       2.556000      11.050000       1.560500       3.047500       0.000000       0.000000       0.000000       0.000000
          3     Au      Au         gupt        0.206100       2.884000      10.229000       1.790000       4.036000       0.000000       0.000000       0.000000       0.000000

 configuration file name: 

          Cu3Au ALLOY (32000 ATOMS)                                               


 selected image convention               3


 simulation cell vectors

       75.6122544500        0.0000000000        0.0000000000
        0.0000000000       75.6122544500        0.0000000000
        0.0000000000        0.0000000000       75.6122544500


 system volume            432291.365841    

 *** all reading and connectivity checks DONE ***

 time elapsed since job start:        0.329 sec


 long-range correction to metal energy       5.188841E-05
 lr correction for metal atom density        2.351111E+01
 1st partial lr correction to metal virial  -1.573558E-03

 density dependent energy and virial corrections

                         Au         6.505912E-02   8.331831E+00
                         Cu         1.888229E+01   1.491229E+02

 *** initialisation and haloing DONE ***

 time elapsed since job start:        0.338 sec

 //==============================================================\\
 ||                                                              ||
 ||           SUMMARY  OF  TOPOLOGICAL  DECOMPOSITION            ||
 ||                                                              ||
 ||--------------------------------------------------------------||
 ||  INTERACTION  OR  TYPE  |  GRAND TOTAL | Fully/Partly FROZEN ||
 ||-------------------------+--------------+---------------------||
 ||  all particles/sites    |       32000  |  F            0     ||
 ||  free particles         |       32000  |  F            0     ||
 ||  core-shell units       |           0  |  P            0     ||
 ||  constraint bond units  |           0  |  F            0     ||
 ||  PMF units              |           0  |  P         NONE     ||
 ||  rigid body units       |           0  |  F            0     ||
 ||  tethered atom units    |           0  |  F            0     ||
 ||  chemical bond units    |           0  |  F            0     ||
 ||  bond angle units       |           0  |  F            0     ||
 ||  dihedral angle units   |           0  |  F            0     ||
 ||  inversion angle units  |           0  |  F            0     ||
 \\==============================================================//


 *** bookkeeping DONE ***

 time elapsed since job start:        0.339 sec


 degrees of freedom break-down list
 ----------------------------------
 free particles               96000
 centre of mass                  -3
 non-periodicity                  0
 frozen free particles            0
 shell-pseudo                     0
 constrained                      0
 RB translational                 0
 RB rotational                    0
 ----------------------------------
 total (real)                 95997

 *** temperature setting DONE ***

 time elapsed since job start:        0.339 sec


 sample of starting configuration on node zero

        i       x(i)        y(i)        z(i)       vx(i)       vy(i)       vz(i)


        1 -3.7755E+01  3.7740E+01 -3.7718E+01 -5.4689E-01 -1.3281E+00  1.5838E-01
     1601 -3.7757E+01  3.7724E+01 -3.3908E+01 -7.1421E-01 -7.3974E-01  3.8776E-01
     3201 -3.7706E+01  3.7767E+01 -3.0111E+01 -1.1204E+00  5.3194E-01  5.6851E-01
     4801 -3.7712E+01  3.7698E+01 -2.6396E+01  3.5466E-01  3.3088E-01 -6.2612E-01
     6401 -3.7755E+01 -3.7691E+01 -2.2421E+01 -2.0175E+00  2.0835E+00 -1.8097E+00
     8001 -3.7761E+01  3.7736E+01 -1.8811E+01  2.2668E-02 -1.3711E-01 -3.3865E-01
     9601 -3.7765E+01 -3.7797E+01 -1.5205E+01  1.7321E-01  1.3744E+00  2.0243E+00
    11201 -3.7772E+01 -3.7763E+01 -1.1322E+01 -1.0232E+00 -6.6509E-01  8.2895E-01
    12801 -3.7791E+01 -3.7751E+01 -7.5304E+00 -6.3444E-01  2.3007E+00 -1.9828E+00
    14401  3.7707E+01  3.7799E+01 -3.7063E+00  1.3283E+00 -1.4043E+00 -1.6934E-01
    16001 -3.7710E+01  3.7766E+01 -1.7679E-03  3.1685E-01 -6.7237E-01 -4.6157E-01
    17601  3.7651E+01 -3.7800E+01  3.7144E+00  1.9300E-02 -3.0643E+00 -2.1735E+00
    19201  3.7752E+01  3.7750E+01  7.6613E+00  5.6404E-01 -8.2664E-02  1.1541E+00
    20801 -3.7708E+01 -3.7583E+01  1.1467E+01 -3.0450E-01 -1.0458E+00 -1.6052E-01
    22401 -3.7648E+01  3.7778E+01  1.5327E+01 -1.7586E-02 -1.4214E+00 -3.0658E+00
    24001  3.7794E+01  3.7801E+01  1.9172E+01  9.9712E-01 -4.0217E-01  1.3903E+00
    25601  3.7805E+01 -3.7746E+01  2.2729E+01 -4.7153E-01 -8.6784E-01 -1.4847E+00
    27201 -3.7670E+01  3.7686E+01  2.6459E+01  5.5938E-02  1.1501E-01 -9.0510E-01
    28801  3.7714E+01  3.7720E+01  3.0228E+01 -9.9211E-01 -1.3200E+00  9.6866E-01
    30401  3.7732E+01 -3.7735E+01  3.3963E+01  6.0610E-01 -1.3426E+00 -7.3908E-01



 time elapsed since job start:        0.339 sec

 forces evaluated at (re)start for VV integration...

 ----------------------------------------------------------------------------------------------------------------------------------

          step     eng_tot    temp_tot     eng_cfg     eng_src     eng_cou     eng_bnd     eng_ang     eng_dih     eng_tet
      time(ps)      eng_pv    temp_rot     vir_cfg     vir_src     vir_cou     vir_bnd     vir_ang     vir_con     vir_tet
      cpu  (s)      volume    temp_shl     eng_shl     vir_shl       alpha        beta       gamma     vir_pmf       press

 ----------------------------------------------------------------------------------------------------------------------------------
             0 -1.1327E+05  3.0000E+02 -1.1451E+05 -1.1451E+05  0.0000E+00  0.0000E+00  0.0000E+00  0.0000E+00  0.0000E+00
       0.00000 -1.4080E+05  0.0000E+00  8.5053E+04  8.5053E+04  0.0000E+00  0.0000E+00  0.0000E+00  0.0000E+00  0.0000E+00
         0.694  4.3229E+05  0.0000E+00  0.0000E+00  0.0000E+00  9.0000E+01  9.0000E+01  9.0000E+01  0.0000E+00 -1.0068E+02

       rolling  0.0000E+00  0.0000E+00  0.0000E+00  0.0000E+00  0.0000E+00  0.0000E+00  0.0000E+00  0.0000E+00  0.0000E+00
      averages  0.0000E+00  0.0000E+00  0.0000E+00  0.0000E+00  0.0000E+00  0.0000E+00  0.0000E+00  0.0000E+00  0.0000E+00
                0.0000E+00  0.0000E+00  0.0000E+00  0.0000E+00  0.0000E+00  0.0000E+00  0.0000E+00  0.0000E+00  0.0000E+00
 ----------------------------------------------------------------------------------------------------------------------------------
 ----------------------------------------------------------------------------------------------------------------------------------

          step     eng_tot    temp_tot     eng_cfg     eng_src     eng_cou     eng_bnd     eng_ang     eng_dih     eng_tet
      time(ps)      eng_pv    temp_rot     vir_cfg     vir_src     vir_cou     vir_bnd     vir_ang     vir_con     vir_tet
      cpu  (s)      volume    temp_shl     eng_shl     vir_shl       alpha        beta       gamma     vir_pmf       press

 ----------------------------------------------------------------------------------------------------------------------------------
             1 -1.1327E+05  3.0004E+02 -1.1451E+05 -1.1451E+05  0.0000E+00  0.0000E+00  0.0000E+00  0.0000E+00  0.0000E+00
       0.00100 -1.4080E+05  0.0000E+00  8.5054E+04  8.5054E+04  0.0000E+00  0.0000E+00  0.0000E+00  0.0000E+00  0.0000E+00
         0.970  4.3229E+05  0.0000E+00  0.0000E+00  0.0000E+00  9.0000E+01  9.0000E+01  9.0000E+01  0.0000E+00 -1.0068E+02

       rolling -1.1327E+05  3.0004E+02 -1.1451E+05 -1.1451E+05  0.0000E+00  0.0000E+00  0.0000E+00  0.0000E+00  0.0000E+00
      averages -1.4080E+05  0.0000E+00  8.5054E+04  8.5054E+04  0.0000E+00  0.0000E+00  0.0000E+00  0.0000E+00  0.0000E+00
                4.3229E+05  0.0000E+00  0.0000E+00  0.0000E+00  9.0000E+01  9.0000E+01  9.0000E+01  0.0000E+00 -1.0068E+02
 ----------------------------------------------------------------------------------------------------------------------------------
             2 -1.1327E+05  3.0012E+02 -1.1451E+05 -1.1451E+05  0.0000E+00  0.0000E+00  0.0000E+00  0.0000E+00  0.0000E+00
       0.00200 -1.4080E+05  0.0000E+00  8.5057E+04  8.5057E+04  0.0000E+00  0.0000E+00  0.0000E+00  0.0000E+00  0.0000E+00
         1.232  4.3229E+05  0.0000E+00  0.0000E+00  0.0000E+00  9.0000E+01  9.0000E+01  9.0000E+01  0.0000E+00 -1.0068E+02

       rolling -1.1327E+05  3.0008E+02 -1.1451E+05 -1.1451E+05  0.0000E+00  0.0000E+00  0.0000E+00  0.0000E+00  0.0000E+00
      averages -1.4080E+05  0.0000E+00  8.5056E+04  8.5056E+04  0.0000E+00  0.0000E+00  0.0000E+00  0.0000E+00  0.0000E+00
                4.3229E+05  0.0000E+00  0.0000E+00  0.0000E+00  9.0000E+01  9.0000E+01  9.0000E+01  0.0000E+00 -1.0068E+02
 ----------------------------------------------------------------------------------------------------------------------------------
             4 -1.1327E+05  3.0016E+02 -1.1452E+05 -1.1452E+05  0.0000E+00  0.0000E+00  0.0000E+00  0.0000E+00  0.0000E+00
       0.00400 -1.4080E+05  0.0000E+00  8.5066E+04  8.5066E+04  0.0000E+00  0.0000E+00  0.0000E+00  0.0000E+00  0.0000E+00
         1.763  4.3229E+05  0.0000E+00  0.0000E+00  0.0000E+00  9.0000E+01  9.0000E+01  9.0000E+01  0.0000E+00 -1.0069E+02

       rolling -1.1327E+05  3.0008E+02 -1.1452E+05 -1.1452E+05  0.0000E+00  0.0000E+00  0.0000E+00  0.0000E+00  0.0000E+00
      averages -1.4080E+05  0.0000E+00  8.5060E+04  8.5060E+04  0.0000E+00  0.0000E+00  0.0000E+00  0.0000E+00  0.0000E+00
                4.3229E+05  0.0000E+00  0.0000E+00  0.0000E+00  9.0000E+01  9.0000E+01  9.0000E+01  0.0000E+00 -1.0068E+02
 ----------------------------------------------------------------------------------------------------------------------------------
             6 -1.1327E+05  3.0061E+02 -1.1452E+05 -1.1452E+05  0.0000E+00  0.0000E+00  0.0000E+00  0.0000E+00  0.0000E+00
       0.00600 -1.4081E+05  0.0000E+00  8.5080E+04  8.5080E+04  0.0000E+00  0.0000E+00  0.0000E+00  0.0000E+00  0.0000E+00
         2.296  4.3229E+05  0.0000E+00  0.0000E+00  0.0000E+00  9.0000E+01  9.0000E+01  9.0000E+01  0.0000E+00 -1.0070E+02

       rolling -1.1327E+05  3.0022E+02 -1.1452E+05 -1.1452E+05  0.0000E+00  0.0000E+00  0.0000E+00  0.0000E+00  0.0000E+00
      averages -1.4080E+05  0.0000E+00  8.5065E+04  8.5065E+04  0.0000E+00  0.0000E+00  0.0000E+00  0.0000E+00  0.0000E+00
                4.3229E+05  0.0000E+00  0.0000E+00  0.0000E+00  9.0000E+01  9.0000E+01  9.0000E+01  0.0000E+00 -1.0069E+02
 ----------------------------------------------------------------------------------------------------------------------------------
             8 -1.1327E+05  3.0122E+02 -1.1452E+05 -1.1452E+05  0.0000E+00  0.0000E+00  0.0000E+00  0.0000E+00  0.0000E+00
       0.00800 -1.4081E+05  0.0000E+00  8.5098E+04  8.5098E+04  0.0000E+00  0.0000E+00  0.0000E+00  0.0000E+00  0.0000E+00
         2.844  4.3229E+05  0.0000E+00  0.0000E+00  0.0000E+00  9.0000E+01  9.0000E+01  9.0000E+01  0.0000E+00 -1.0072E+02

       rolling -1.1327E+05  3.0043E+02 -1.1452E+05 -1.1452E+05  0.0000E+00  0.0000E+00  0.0000E+00  0.0000E+00  0.0000E+00
      averages -1.4080E+05  0.0000E+00  8.5072E+04  8.5072E+04  0.0000E+00  0.0000E+00  0.0000E+00  0.0000E+00  0.0000E+00
                4.3229E+05  0.0000E+00  0.0000E+00  0.0000E+00  9.0000E+01  9.0000E+01  9.0000E+01  0.0000E+00 -1.0069E+02
 ----------------------------------------------------------------------------------------------------------------------------------
            10 -1.1328E+05  3.0000E+02 -1.1452E+05 -1.1452E+05  0.0000E+00  0.0000E+00  0.0000E+00  0.0000E+00  0.0000E+00
       0.01000 -1.4083E+05  0.0000E+00  8.5119E+04  8.5119E+04  0.0000E+00  0.0000E+00  0.0000E+00  0.0000E+00  0.0000E+00
         3.387  4.3229E+05  0.0000E+00  0.0000E+00  0.0000E+00  9.0000E+01  9.0000E+01  9.0000E+01  0.0000E+00 -1.0076E+02

       rolling -1.1328E+05  3.0050E+02 -1.1452E+05 -1.1452E+05  0.0000E+00  0.0000E+00  0.0000E+00  0.0000E+00  0.0000E+00
      averages -1.4081E+05  0.0000E+00  8.5080E+04  8.5080E+04  0.0000E+00  0.0000E+00  0.0000E+00  0.0000E+00  0.0000E+00
                4.3229E+05  0.0000E+00  0.0000E+00  0.0000E+00  9.0000E+01  9.0000E+01  9.0000E+01  0.0000E+00 -1.0070E+02
 ----------------------------------------------------------------------------------------------------------------------------------

 switching off temperature scaling at step 10

 ----------------------------------------------------------------------------------------------------------------------------------
            12 -1.1328E+05  3.0087E+02 -1.1453E+05 -1.1453E+05  0.0000E+00  0.0000E+00  0.0000E+00  0.0000E+00  0.0000E+00
       0.01200 -1.4083E+05  0.0000E+00  8.5144E+04  8.5144E+04  0.0000E+00  0.0000E+00  0.0000E+00  0.0000E+00  0.0000E+00
         3.901  4.3229E+05  0.0000E+00  0.0000E+00  0.0000E+00  9.0000E+01  9.0000E+01  9.0000E+01  0.0000E+00 -1.0078E+02

       rolling -1.1328E+05  3.0052E+02 -1.1452E+05 -1.1452E+05  0.0000E+00  0.0000E+00  0.0000E+00  0.0000E+00  0.0000E+00
      averages -1.4081E+05  0.0000E+00  8.5090E+04  8.5090E+04  0.0000E+00  0.0000E+00  0.0000E+00  0.0000E+00  0.0000E+00
                4.3229E+05  0.0000E+00  0.0000E+00  0.0000E+00  9.0000E+01  9.0000E+01  9.0000E+01  0.0000E+00 -1.0072E+02
 ----------------------------------------------------------------------------------------------------------------------------------
            14 -1.1328E+05  3.0185E+02 -1.1453E+05 -1.1453E+05  0.0000E+00  0.0000E+00  0.0000E+00  0.0000E+00  0.0000E+00
       0.01400 -1.4084E+05  0.0000E+00  8.5172E+04  8.5172E+04  0.0000E+00  0.0000E+00  0.0000E+00  0.0000E+00  0.0000E+00
         4.412  4.3229E+05  0.0000E+00  0.0000E+00  0.0000E+00  9.0000E+01  9.0000E+01  9.0000E+01  0.0000E+00 -1.0080E+02

       rolling -1.1328E+05  3.0068E+02 -1.1452E+05 -1.1452E+05  0.0000E+00  0.0000E+00  0.0000E+00  0.0000E+00  0.0000E+00
      averages -1.4082E+05  0.0000E+00  8.5101E+04  8.5101E+04  0.0000E+00  0.0000E+00  0.0000E+00  0.0000E+00  0.0000E+00
                4.3229E+05  0.0000E+00  0.0000E+00  0.0000E+00  9.0000E+01  9.0000E+01  9.0000E+01  0.0000E+00 -1.0073E+02
 ----------------------------------------------------------------------------------------------------------------------------------
 ----------------------------------------------------------------------------------------------------------------------------------

          step     eng_tot    temp_tot     eng_cfg     eng_src     eng_cou     eng_bnd     eng_ang     eng_dih     eng_tet
      time(ps)      eng_pv    temp_rot     vir_cfg     vir_src     vir_cou     vir_bnd     vir_ang     vir_con     vir_tet
      cpu  (s)      volume    temp_shl     eng_shl     vir_shl       alpha        beta       gamma     vir_pmf       press

 ----------------------------------------------------------------------------------------------------------------------------------
            16 -1.1328E+05  3.0294E+02 -1.1454E+05 -1.1454E+05  0.0000E+00  0.0000E+00  0.0000E+00  0.0000E+00  0.0000E+00
       0.01600 -1.4085E+05  0.0000E+00  8.5201E+04  8.5201E+04  0.0000E+00  0.0000E+00  0.0000E+00  0.0000E+00  0.0000E+00
         4.998  4.3229E+05  0.0000E+00  0.0000E+00  0.0000E+00  9.0000E+01  9.0000E+01  9.0000E+01  0.0000E+00 -1.0083E+02

       rolling -1.1328E+05  3.0093E+02 -1.1452E+05 -1.1452E+05  0.0000E+00  0.0000E+00  0.0000E+00  0.0000E+00  0.0000E+00
      averages -1.4082E+05  0.0000E+00  8.5112E+04  8.5112E+04  0.0000E+00  0.0000E+00  0.0000E+00  0.0000E+00  0.0000E+00
                4.3229E+05  0.0000E+00  0.0000E+00  0.0000E+00  9.0000E+01  9.0000E+01  9.0000E+01  0.0000E+00 -1.0074E+02
 ----------------------------------------------------------------------------------------------------------------------------------
            18 -1.1328E+05  3.0410E+02 -1.1454E+05 -1.1454E+05  0.0000E+00  0.0000E+00  0.0000E+00  0.0000E+00  0.0000E+00
       0.01800 -1.4085E+05  0.0000E+00  8.5232E+04  8.5232E+04  0.0000E+00  0.0000E+00  0.0000E+00  0.0000E+00  0.0000E+00
         5.519  4.3229E+05  0.0000E+00  0.0000E+00  0.0000E+00  9.0000E+01  9.0000E+01  9.0000E+01  0.0000E+00 -1.0085E+02

       rolling -1.1328E+05  3.0125E+02 -1.1452E+05 -1.1452E+05  0.0000E+00  0.0000E+00  0.0000E+00  0.0000E+00  0.0000E+00
      averages -1.4082E+05  0.0000E+00  8.5125E+04  8.5125E+04  0.0000E+00  0.0000E+00  0.0000E+00  0.0000E+00  0.0000E+00
                4.3229E+05  0.0000E+00  0.0000E+00  0.0000E+00  9.0000E+01  9.0000E+01  9.0000E+01  0.0000E+00 -1.0075E+02
 ----------------------------------------------------------------------------------------------------------------------------------
            20 -1.1328E+05  3.0531E+02 -1.1455E+05 -1.1455E+05  0.0000E+00  0.0000E+00  0.0000E+00  0.0000E+00  0.0000E+00
       0.02000 -1.4086E+05  0.0000E+00  8.5263E+04  8.5263E+04  0.0000E+00  0.0000E+00  0.0000E+00  0.0000E+00  0.0000E+00
         6.039  4.3229E+05  0.0000E+00  0.0000E+00  0.0000E+00  9.0000E+01  9.0000E+01  9.0000E+01  0.0000E+00 -1.0088E+02

       rolling -1.1328E+05  3.0162E+02 -1.1453E+05 -1.1453E+05  0.0000E+00  0.0000E+00  0.0000E+00  0.0000E+00  0.0000E+00
      averages -1.4083E+05  0.0000E+00  8.5138E+04  8.5138E+04  0.0000E+00  0.0000E+00  0.0000E+00  0.0000E+00  0.0000E+00
                4.3229E+05  0.0000E+00  0.0000E+00  0.0000E+00  9.0000E+01  9.0000E+01  9.0000E+01  0.0000E+00 -1.0076E+02
 ----------------------------------------------------------------------------------------------------------------------------------


 run terminating...  elapsed cpu time:        6.039 sec, job time:     1000.000 sec, close time:       10.000 sec



 sample of final configuration on node zero

        i       x(i)        y(i)        z(i)       vx(i)       vy(i)       vz(i)       fx(i)       fy(i)       fz(i)


        1 -3.7763E+01  3.7716E+01 -3.7718E+01 -2.8299E-01 -9.9749E-01 -1.3831E-01  2.6087E+03  4.4998E+03 -2.4144E+03
     1601 -3.7774E+01  3.7713E+01 -3.3903E+01 -9.4641E-01 -3.6585E-01  1.2656E-01 -6.1203E+02  3.4184E+03 -1.3932E+03
     3201 -3.7732E+01  3.7776E+01 -3.0103E+01 -1.5435E+00  3.6343E-01  1.9725E-01 -4.1188E+03 -1.5920E+03 -4.2203E+03
     4801 -3.7706E+01  3.7710E+01 -2.6408E+01  2.7614E-01  8.5425E-01 -4.9494E-01 -6.3817E+02  4.1268E+03  2.5098E+03
     6401 -3.7795E+01 -3.7655E+01 -2.2462E+01 -2.0441E+00  1.4465E+00 -2.3602E+00 -4.4900E+02 -7.6393E+03 -5.6252E+03
     8001 -3.7765E+01  3.7737E+01 -1.8816E+01 -3.9752E-01  2.3452E-01 -6.4947E-02 -3.9813E+03  4.1644E+03  2.5411E+03
     9601 -3.7759E+01 -3.7771E+01 -1.5161E+01  4.3470E-01  1.1885E+00  2.3604E+00  2.1083E+03 -1.9671E+03  2.7275E+03
    11201 -3.7796E+01 -3.7776E+01 -1.1308E+01 -1.3262E+00 -7.1154E-01  5.8364E-01 -1.2960E+03 -8.2454E+02 -1.8864E+03
    12801 -3.7802E+01 -3.7707E+01 -7.5684E+00 -4.7206E-01  2.1500E+00 -1.7621E+00  1.8642E+03 -2.0523E+03  3.4197E+03
    14401  3.7734E+01  3.7772E+01 -3.7121E+00  1.3888E+00 -1.2783E+00 -3.8836E-01 -8.4867E+02  1.9456E+03 -1.7271E+03
    16001 -3.7708E+01  3.7753E+01 -1.3847E-02 -1.7736E-01 -6.5877E-01 -7.7376E-01 -5.2738E+03  9.1784E+02 -3.6213E+03
    17601  3.7651E+01  3.7752E+01  3.6762E+00 -1.0085E-01 -2.9049E+00 -1.6471E+00 -3.1963E+03  3.0387E+03  5.3620E+03
    19201  3.7766E+01  3.7749E+01  7.6839E+00  8.7985E-01  3.9681E-02  1.0854E+00  3.7944E+03  1.7554E+03 -1.0309E+03
    20801 -3.7717E+01 -3.7612E+01  1.1465E+01 -5.4689E-01 -1.8286E+00  8.1913E-02 -2.4142E+03 -8.1422E+03  3.7054E+03
    22401 -3.7652E+01  3.7754E+01  1.5263E+01 -4.8211E-01 -9.8976E-01 -3.2474E+00 -6.2539E+03  5.3084E+03 -9.2193E+02
    24001 -3.7796E+01  3.7792E+01  1.9195E+01  1.1990E+00 -4.8270E-01  9.4428E-01  2.3992E+03 -3.3863E+02 -5.3320E+03
    25601  3.7795E+01 -3.7766E+01  2.2705E+01 -4.5108E-01 -1.2226E+00 -8.8152E-01  8.6143E+02 -3.7614E+03  6.8424E+03
    27201 -3.7672E+01  3.7695E+01  2.6440E+01 -1.6152E-01  6.8495E-01 -1.0060E+00 -1.7969E+03  4.1695E+03 -8.9556E+02
    28801  3.7699E+01  3.7701E+01  3.0248E+01 -5.4979E-01 -5.7324E-01  1.0854E+00  5.4011E+03  8.0803E+03  9.6031E+02
    30401  3.7748E+01 -3.7760E+01  3.3951E+01  9.5839E-01 -1.2005E+00 -3.8824E-01  2.6046E+03  1.5622E+03  3.9251E+03


 VNL skipping run statistics - skips per timestep: average    9.50 minimum    4 maximum   15


 run terminated after       20 steps (     0.020 ps), final averages calculated over       10 steps (     0.010 ps).


 ----------------------------------------------------------------------------------------------------------------------------------

          step     eng_tot    temp_tot     eng_cfg     eng_src     eng_cou     eng_bnd     eng_ang     eng_dih     eng_tet
      time(ps)      eng_pv    temp_rot     vir_cfg     vir_src     vir_cou     vir_bnd     vir_ang     vir_con     vir_tet
      cpu  (s)      volume    temp_shl     eng_shl     vir_shl       alpha        beta       gamma     vir_pmf       press

 ----------------------------------------------------------------------------------------------------------------------------------
            10 -1.1328E+05  3.0274E+02 -1.1453E+05 -1.1453E+05  0.0000E+00  0.0000E+00  0.0000E+00  0.0000E+00  0.0000E+00
       0.01000 -1.4085E+05  0.0000E+00  8.5195E+04  8.5195E+04  0.0000E+00  0.0000E+00  0.0000E+00  0.0000E+00  0.0000E+00
         6.345  4.3229E+05  0.0000E+00  0.0000E+00  0.0000E+00  9.0000E+01  9.0000E+01  9.0000E+01  0.0000E+00 -1.0082E+02

       r.m.s.   1.5464E-03  1.5700E+00  6.5005E+00  6.5005E+00  0.0000E+00  0.0000E+00  0.0000E+00  0.0000E+00  0.0000E+00
      fluctu-   9.8328E+00  0.0000E+00  4.2464E+01  4.2464E+01  0.0000E+00  0.0000E+00  0.0000E+00  0.0000E+00  0.0000E+00
      ations    0.0000E+00  0.0000E+00  0.0000E+00  0.0000E+00  0.0000E+00  0.0000E+00  0.0000E+00  0.0000E+00  3.5942E-02
 ----------------------------------------------------------------------------------------------------------------------------------

 Extended energy:         7.4553E-03      r.m.s. fluctuations:    5.3883E-03

 ----------------------------------------------------------------------------------------------------------------------------------


            Approximate 3D Diffusion Coefficients and square root of MSDs

            atom         DC (10^-9 m^2 s^-1)   Sqrt[MSD] (Ang)

            Au                4.6617E-03          1.2271E-02
            Cu                0.0000E+00          2.1195E-02


                Average pressure tensor  (katms)                              r.m.s. fluctuations

          -1.0087E+02 -5.1192E-02 -5.2846E-02                          3.6456E-02  5.2905E-03  4.0619E-03
          -5.1192E-02 -1.0080E+02  1.3221E-01                          5.2905E-03  3.9934E-02  1.2484E-03
          -5.2846E-02  1.3221E-01 -1.0080E+02                          4.0619E-03  1.2484E-03  3.1439E-02

            trace/3   -1.0082E+02



 time elapsed since job start:        6.345 sec



 *************************************************************************************************************************
 **************                                                                                             **************
 **************  Thank you for using the DL_POLY_4 package in your work.  Please, acknowledge our efforts   **************
 **************                                                                                             **************
 **************  by including the following references when publishing data obtained using DL_POLY_4:       **************
 **************                                                                                             **************
 **************  I.T. Todorov, W. Smith, K. Trachenko & M.T. Dove, `J. Mater. Chem.', 16, 1911-1918 (2006)  **************
 **************                                                                                             **************
 *************************************************************************************************************************

