 ******************************************************************
 *************  stfc/ccp5  program  library  package  ** D ********
 *************  daresbury laboratory general purpose  *** L *******
 **         **  classical molecular dynamics program  **** \ ******
 ** DL_POLY **  authors:   i.t.todorov   &   w.smith  ***** P *****
 **         **  version:   4.09    /   february 2016  ****** O ****
 *************  execution on           8 process(es)  ******* L ***
 *************  contributors' list:                   ******** Y **
 *************  ------------------------------------  *************
 *************  i.j.bush, h.a.boateng, r.davidchak,   *************
 *************  m.a.seaton, a.v.brukhno, a.m.elena,   *************
 *************  s.l.daraszewicz,g.khara,s.t.murphy    *************

 ******************************************************************

 ******************************************************************
 **** birthday: Dec 6 2017 @ 17:25:51                          ****
 ****  machine: ktl61935lnx.dl.ac.uk                           ****
 ****  builder: dr faustroll                                   ****
 **** compiler: gfortran v7.1.1 20170629 [gcc-7-branch revisio ****
 ****      MPI: v3.0                                           ****
 **** MPI libs: Open MPI v1.10.7rc1, package: Open MPI Distrib ****
 **** MPI libs: ution for openSUSE, ident: 1.10.7rc1, repo rev ****
 **** MPI libs: : date2017-06-28, Unreleased developer copy    ****
 **** executed: 2017-12-06  @  18:42:31.240  (GMT+00:00)       ****
 ******************************************************************

 ******************************************************************
 ****  ~~~~~~~~~~~~~~~~~~~~~~~~~~~~~~~~~~~~~~~~~~~~~~~~~~~~~~  ****
 ****  Please do cite `J. Mater. Chem.', 16, 1911-1918 (2006)  ****
 ****  ^^^^^^^^^^^^^^^^^^^^^^^^^^^^^^^^^^^^^^^^^^^^^^^^^^^^^^  ****
 ****  when publishing research data obtained using DL_POLY_4  ****
 ****  ^^^^^^^^^^^^^^^^^^^^^^^^^^^^^^^^^^^^^^^^^^^^^^^^^^^^^^  ****
 ******************************************************************


 I/O read method: parallel by using MPI-I/O (assumed)
 I/O readers (assumed)                   4
 I/O read batch size (assumed)     2000000
 I/O read buffer size (assumed)      20000
 I/O parallel read error checking off (assumed)

 I/O write method: parallel by using MPI-I/O (assumed)
 I/O write type: data sorting on (assumed)
 I/O writers (assumed)                   8
 I/O write batch size (assumed)    2000000
 I/O write buffer size (assumed)     20000
 I/O parallel write error checking off (assumed)


 node/domain decomposition (x,y,z):      2     2     2

 cutoffs driven limit on largest possible decomposition:  2744 nodes/domains (14,14,14)

 cutoffs driven limit on largest balanced decomposition:   343 nodes/domains (7,7,7)

 link-cell decomposition 1 (x,y,z):      7     7     7

 *** pre-scanning stage (set_bounds) DONE ***

 time elapsed since job start:        0.142 sec

 **********************************************************************************************************************************
 **********************************************************************************************************************************
 **********************************************************************************************************************************
 ************************     COPPER WITH TABULATED EAM POTENTIAL                                          ************************
 **********************************************************************************************************************************
 **********************************************************************************************************************************
 **********************************************************************************************************************************


 SIMULATION CONTROL PARAMETERS

 scaled restart requested (starting a new simulation)

 simulation temperature (K)          3.0000E+02

 simulation pressure (katms)         0.0000E+00

 Integration : Velocity Verlet
 Ensemble : NPT isotropic Berendsen
 thermostat relaxation time (ps)     1.0000E+00
 barostat relaxation time   (ps)     3.0000E+00

 selected number of timesteps           20

 equilibration period (steps)           10

 temperature scaling on (during equilibration)
 temperature scaling interval           10

 real space cutoff (Angs)            5.0000E+00

 data printing interval (steps)          2

 data stacking interval (steps)        100

 statistics file interval                2

 Electrostatics switched off!!!

 vdw potential terms switched off

 fixed simulation timestep (ps)      1.0000E-03

 data dumping interval (steps)        1000

 subcelling threshold density        5.0000E+01

 allocated job run time   (s)        6.0000E+02

 allocated job close time (s)        1.0000E+02


 SYSTEM SPECIFICATION

 energy units = eV


 number of molecular types               1


 molecular species type                  1

 name of species:             Copper                                  

 number of molecules                   125

 number of atoms/sites                 256

 atomic characteristics:

               site    name             mass         charge      repeat      freeze

                  1    Cu            63.546000       0.000000       256         0


 total number of molecules             125

 total number of sites                 256


 number of specified metal potentials              1

       pair     atom 1  atom 2     key                              parameters

          1    Cu      Cu         EAM-pair    1000   1.000000E+00   4.997332E+00   4.001334E-03
          2    Cu      Cu         EAM-dens    1000   1.000000E+00   4.997332E+00   4.001334E-03
          3    Cu      Cu         EAM-embe     500   0.000000E+00   1.000000E+02   2.004008E-01

 potential tables read from TABEAM file

 configuration file name: 

          Lattice file generated by FILE_MAKER utility                            


 selected image convention               3


 simulation cell vectors

       72.6756452718        0.0000000000        0.0000000000
        0.0000000000       72.6756452718        0.0000000000
        0.0000000000        0.0000000000       72.6756452718


 system volume            383854.546948    

 *** all reading and connectivity checks DONE ***

 time elapsed since job start:        0.152 sec


 long-range correction to metal energy       0.000000E+00
 lr correction for metal atom density        0.000000E+00
 1st partial lr correction to metal virial   0.000000E+00

 density dependent energy and virial corrections

                         Cu         0.000000E+00   0.000000E+00

 *** initialisation and haloing DONE ***

 time elapsed since job start:        0.154 sec

 //==============================================================\\
 ||                                                              ||
 ||           SUMMARY  OF  TOPOLOGICAL  DECOMPOSITION            ||
 ||                                                              ||
 ||--------------------------------------------------------------||
 ||  INTERACTION  OR  TYPE  |  GRAND TOTAL | Fully/Partly FROZEN ||
 ||-------------------------+--------------+---------------------||
 ||  all particles/sites    |       32000  |  F            0     ||
 ||  free particles         |       32000  |  F            0     ||
 ||  core-shell units       |           0  |  P            0     ||
 ||  constraint bond units  |           0  |  F            0     ||
 ||  PMF units              |           0  |  P         NONE     ||
 ||  rigid body units       |           0  |  F            0     ||
 ||  tethered atom units    |           0  |  F            0     ||
 ||  chemical bond units    |           0  |  F            0     ||
 ||  bond angle units       |           0  |  F            0     ||
 ||  dihedral angle units   |           0  |  F            0     ||
 ||  inversion angle units  |           0  |  F            0     ||
 \\==============================================================//


 *** bookkeeping DONE ***

 time elapsed since job start:        0.154 sec


 degrees of freedom break-down list
 ----------------------------------
 free particles               96000
 centre of mass                  -3
 non-periodicity                  0
 frozen free particles            0
 shell-pseudo                     0
 constrained                      0
 RB translational                 0
 RB rotational                    0
 ----------------------------------
 total (real)                 95997

 *** temperature setting DONE ***

 time elapsed since job start:        0.155 sec


 sample of starting configuration on node zero

        i       x(i)        y(i)        z(i)       vx(i)       vy(i)       vz(i)


        1 -3.5227E+01 -3.5337E+01 -3.5479E+01 -5.3575E+00  2.5194E-01 -3.1281E+00
      201 -2.8294E+01 -3.5411E+01 -2.4399E+01 -1.7439E+00  4.2700E-01  1.4080E+00
      401 -2.0864E+01 -3.1817E+01 -2.8176E+01 -1.3780E+00 -4.6514E-01  1.7041E+00
      689 -6.2652E+00 -2.4596E+01 -2.8225E+01  2.9802E+00  1.0300E-01 -4.1153E+00
     1441 -3.5417E+01 -1.3624E+01 -2.8034E+01 -1.4939E-01 -1.4021E+00 -2.5035E+00
     1641 -1.3621E+01 -1.3615E+01 -3.1723E+01  9.0554E-01  1.0237E+00 -5.0590E+00
     1889 -6.3367E+00 -1.3545E+01 -3.1752E+01  2.0795E+00  1.0218E+00  2.0844E+00
     2777 -2.8157E+01 -2.7843E+00 -2.4491E+01  5.0727E-01  3.7917E+00  6.1627E-01
     6401 -3.5227E+01 -3.5337E+01 -2.0944E+01 -2.1853E+00  1.2500E+00 -3.2897E+00
     6601 -2.8294E+01 -3.5411E+01 -9.8641E+00 -2.5483E-01 -3.6540E+00  8.5050E-01
     6801 -2.0864E+01 -3.1817E+01 -1.3641E+01  2.2253E+00 -5.7055E-01 -4.1645E-01
     7089 -6.2652E+00 -2.4596E+01 -1.3690E+01 -2.0194E+00  8.7212E-03 -4.2069E+00
     7841 -3.5417E+01 -1.3624E+01 -1.3499E+01 -1.5734E+00 -4.4184E+00  6.9972E-01
     8041 -1.3621E+01 -1.3615E+01 -1.7188E+01  1.4029E-01 -1.1367E+00 -2.6258E+00
     8289 -6.3367E+00 -1.3545E+01 -1.7217E+01  6.6919E-01  1.1763E+00  1.6890E+00
     9177 -2.8157E+01 -2.7843E+00 -9.9558E+00 -9.8557E-01  1.8623E+00  2.7917E+00
    12801 -3.5227E+01 -3.5337E+01 -6.4090E+00  2.6547E+00  1.0812E+00  1.4698E+00
    13129 -1.3553E+01 -3.5478E+01 -2.6608E+00  2.0903E+00 -8.8272E-01 -1.4520E+00
    14161 -3.5485E+01 -1.7279E+01 -2.7097E+00 -3.3399E+00  3.0180E-01  8.7877E-01
    14641 -6.3086E+00 -1.0044E+01 -6.3629E+00 -7.3932E-01  5.4505E-01  3.1205E-01



 time elapsed since job start:        0.155 sec

 forces evaluated at (re)start for VV integration...

 ----------------------------------------------------------------------------------------------------------------------------------

          step     eng_tot    temp_tot     eng_cfg     eng_src     eng_cou     eng_bnd     eng_ang     eng_dih     eng_tet
      time(ps)      eng_pv    temp_rot     vir_cfg     vir_src     vir_cou     vir_bnd     vir_ang     vir_con     vir_tet
      cpu  (s)      volume    temp_shl     eng_shl     vir_shl       alpha        beta       gamma     vir_pmf       press

 ----------------------------------------------------------------------------------------------------------------------------------
             0 -1.1057E+05  3.0000E+02 -1.1181E+05 -1.1181E+05  0.0000E+00  0.0000E+00  0.0000E+00  0.0000E+00  0.0000E+00
       0.00000 -1.1057E+05  0.0000E+00  2.4467E+03  2.4467E+03  0.0000E+00  0.0000E+00  0.0000E+00  0.0000E+00  0.0000E+00
         0.191  3.8385E+05  0.0000E+00  0.0000E+00  0.0000E+00  9.0000E+01  9.0000E+01  9.0000E+01  0.0000E+00  4.8128E-02

       rolling  0.0000E+00  0.0000E+00  0.0000E+00  0.0000E+00  0.0000E+00  0.0000E+00  0.0000E+00  0.0000E+00  0.0000E+00
      averages  0.0000E+00  0.0000E+00  0.0000E+00  0.0000E+00  0.0000E+00  0.0000E+00  0.0000E+00  0.0000E+00  0.0000E+00
                0.0000E+00  0.0000E+00  0.0000E+00  0.0000E+00  0.0000E+00  0.0000E+00  0.0000E+00  0.0000E+00  0.0000E+00
 ----------------------------------------------------------------------------------------------------------------------------------
 ----------------------------------------------------------------------------------------------------------------------------------

          step     eng_tot    temp_tot     eng_cfg     eng_src     eng_cou     eng_bnd     eng_ang     eng_dih     eng_tet
      time(ps)      eng_pv    temp_rot     vir_cfg     vir_src     vir_cou     vir_bnd     vir_ang     vir_con     vir_tet
      cpu  (s)      volume    temp_shl     eng_shl     vir_shl       alpha        beta       gamma     vir_pmf       press

 ----------------------------------------------------------------------------------------------------------------------------------
             1 -1.1057E+05  2.9995E+02 -1.1181E+05 -1.1181E+05  0.0000E+00  0.0000E+00  0.0000E+00  0.0000E+00  0.0000E+00
       0.00100 -1.1057E+05  0.0000E+00  2.4471E+03  2.4471E+03  0.0000E+00  0.0000E+00  0.0000E+00  0.0000E+00  0.0000E+00
         0.226  3.8385E+05  0.0000E+00  0.0000E+00  0.0000E+00  9.0000E+01  9.0000E+01  9.0000E+01  0.0000E+00  4.7040E-02

       rolling -1.1057E+05  2.9995E+02 -1.1181E+05 -1.1181E+05  0.0000E+00  0.0000E+00  0.0000E+00  0.0000E+00  0.0000E+00
      averages -1.1057E+05  0.0000E+00  2.4471E+03  2.4471E+03  0.0000E+00  0.0000E+00  0.0000E+00  0.0000E+00  0.0000E+00
                3.8385E+05  0.0000E+00  0.0000E+00  0.0000E+00  9.0000E+01  9.0000E+01  9.0000E+01  0.0000E+00  4.7040E-02
 ----------------------------------------------------------------------------------------------------------------------------------
             2 -1.1057E+05  2.9989E+02 -1.1181E+05 -1.1181E+05  0.0000E+00  0.0000E+00  0.0000E+00  0.0000E+00  0.0000E+00
       0.00200 -1.1057E+05  0.0000E+00  2.4467E+03  2.4467E+03  0.0000E+00  0.0000E+00  0.0000E+00  0.0000E+00  0.0000E+00
         0.261  3.8386E+05  0.0000E+00  0.0000E+00  0.0000E+00  9.0000E+01  9.0000E+01  9.0000E+01  0.0000E+00  4.6809E-02

       rolling -1.1057E+05  2.9992E+02 -1.1181E+05 -1.1181E+05  0.0000E+00  0.0000E+00  0.0000E+00  0.0000E+00  0.0000E+00
      averages -1.1057E+05  0.0000E+00  2.4469E+03  2.4469E+03  0.0000E+00  0.0000E+00  0.0000E+00  0.0000E+00  0.0000E+00
                3.8385E+05  0.0000E+00  0.0000E+00  0.0000E+00  9.0000E+01  9.0000E+01  9.0000E+01  0.0000E+00  4.6925E-02
 ----------------------------------------------------------------------------------------------------------------------------------
             4 -1.1057E+05  2.9972E+02 -1.1181E+05 -1.1181E+05  0.0000E+00  0.0000E+00  0.0000E+00  0.0000E+00  0.0000E+00
       0.00400 -1.1057E+05  0.0000E+00  2.4416E+03  2.4416E+03  0.0000E+00  0.0000E+00  0.0000E+00  0.0000E+00  0.0000E+00
         0.330  3.8386E+05  0.0000E+00  0.0000E+00  0.0000E+00  9.0000E+01  9.0000E+01  9.0000E+01  0.0000E+00  5.1860E-02

       rolling -1.1057E+05  2.9984E+02 -1.1181E+05 -1.1181E+05  0.0000E+00  0.0000E+00  0.0000E+00  0.0000E+00  0.0000E+00
      averages -1.1057E+05  0.0000E+00  2.4450E+03  2.4450E+03  0.0000E+00  0.0000E+00  0.0000E+00  0.0000E+00  0.0000E+00
                3.8386E+05  0.0000E+00  0.0000E+00  0.0000E+00  9.0000E+01  9.0000E+01  9.0000E+01  0.0000E+00  4.8670E-02
 ----------------------------------------------------------------------------------------------------------------------------------
             6 -1.1057E+05  2.9950E+02 -1.1181E+05 -1.1181E+05  0.0000E+00  0.0000E+00  0.0000E+00  0.0000E+00  0.0000E+00
       0.00600 -1.1057E+05  0.0000E+00  2.4340E+03  2.4340E+03  0.0000E+00  0.0000E+00  0.0000E+00  0.0000E+00  0.0000E+00
         0.399  3.8386E+05  0.0000E+00  0.0000E+00  0.0000E+00  9.0000E+01  9.0000E+01  9.0000E+01  0.0000E+00  5.9740E-02

       rolling -1.1057E+05  2.9975E+02 -1.1181E+05 -1.1181E+05  0.0000E+00  0.0000E+00  0.0000E+00  0.0000E+00  0.0000E+00
      averages -1.1057E+05  0.0000E+00  2.4420E+03  2.4420E+03  0.0000E+00  0.0000E+00  0.0000E+00  0.0000E+00  0.0000E+00
                3.8386E+05  0.0000E+00  0.0000E+00  0.0000E+00  9.0000E+01  9.0000E+01  9.0000E+01  0.0000E+00  5.1660E-02
 ----------------------------------------------------------------------------------------------------------------------------------
             8 -1.1057E+05  2.9923E+02 -1.1181E+05 -1.1181E+05  0.0000E+00  0.0000E+00  0.0000E+00  0.0000E+00  0.0000E+00
       0.00800 -1.1057E+05  0.0000E+00  2.4248E+03  2.4248E+03  0.0000E+00  0.0000E+00  0.0000E+00  0.0000E+00  0.0000E+00
         0.468  3.8386E+05  0.0000E+00  0.0000E+00  0.0000E+00  9.0000E+01  9.0000E+01  9.0000E+01  0.0000E+00  6.9375E-02

       rolling -1.1057E+05  2.9963E+02 -1.1181E+05 -1.1181E+05  0.0000E+00  0.0000E+00  0.0000E+00  0.0000E+00  0.0000E+00
      averages -1.1057E+05  0.0000E+00  2.4383E+03  2.4383E+03  0.0000E+00  0.0000E+00  0.0000E+00  0.0000E+00  0.0000E+00
                3.8386E+05  0.0000E+00  0.0000E+00  0.0000E+00  9.0000E+01  9.0000E+01  9.0000E+01  0.0000E+00  5.5498E-02
 ----------------------------------------------------------------------------------------------------------------------------------
            10 -1.1056E+05  3.0000E+02 -1.1181E+05 -1.1181E+05  0.0000E+00  0.0000E+00  0.0000E+00  0.0000E+00  0.0000E+00
       0.01000 -1.1056E+05  0.0000E+00  2.4162E+03  2.4162E+03  0.0000E+00  0.0000E+00  0.0000E+00  0.0000E+00  0.0000E+00
         0.538  3.8386E+05  0.0000E+00  0.0000E+00  0.0000E+00  9.0000E+01  9.0000E+01  9.0000E+01  0.0000E+00  8.9971E-02

       rolling -1.1057E+05  2.9962E+02 -1.1181E+05 -1.1181E+05  0.0000E+00  0.0000E+00  0.0000E+00  0.0000E+00  0.0000E+00
      averages -1.1057E+05  0.0000E+00  2.4343E+03  2.4343E+03  0.0000E+00  0.0000E+00  0.0000E+00  0.0000E+00  0.0000E+00
                3.8386E+05  0.0000E+00  0.0000E+00  0.0000E+00  9.0000E+01  9.0000E+01  9.0000E+01  0.0000E+00  6.0717E-02
 ----------------------------------------------------------------------------------------------------------------------------------

 switching off temperature scaling at step 10

 ----------------------------------------------------------------------------------------------------------------------------------
            12 -1.1056E+05  2.9967E+02 -1.1180E+05 -1.1180E+05  0.0000E+00  0.0000E+00  0.0000E+00  0.0000E+00  0.0000E+00
       0.01200 -1.1056E+05  0.0000E+00  2.4068E+03  2.4068E+03  0.0000E+00  0.0000E+00  0.0000E+00  0.0000E+00  0.0000E+00
         0.607  3.8386E+05  0.0000E+00  0.0000E+00  0.0000E+00  9.0000E+01  9.0000E+01  9.0000E+01  0.0000E+00  9.9110E-02

       rolling -1.1057E+05  2.9964E+02 -1.1181E+05 -1.1181E+05  0.0000E+00  0.0000E+00  0.0000E+00  0.0000E+00  0.0000E+00
      averages -1.1057E+05  0.0000E+00  2.4301E+03  2.4301E+03  0.0000E+00  0.0000E+00  0.0000E+00  0.0000E+00  0.0000E+00
                3.8386E+05  0.0000E+00  0.0000E+00  0.0000E+00  9.0000E+01  9.0000E+01  9.0000E+01  0.0000E+00  6.6722E-02
 ----------------------------------------------------------------------------------------------------------------------------------
            14 -1.1056E+05  2.9932E+02 -1.1180E+05 -1.1180E+05  0.0000E+00  0.0000E+00  0.0000E+00  0.0000E+00  0.0000E+00
       0.01400 -1.1056E+05  0.0000E+00  2.3956E+03  2.3956E+03  0.0000E+00  0.0000E+00  0.0000E+00  0.0000E+00  0.0000E+00
         0.676  3.8386E+05  0.0000E+00  0.0000E+00  0.0000E+00  9.0000E+01  9.0000E+01  9.0000E+01  0.0000E+00  1.1050E-01

       rolling -1.1057E+05  2.9961E+02 -1.1181E+05 -1.1181E+05  0.0000E+00  0.0000E+00  0.0000E+00  0.0000E+00  0.0000E+00
      averages -1.1057E+05  0.0000E+00  2.4257E+03  2.4257E+03  0.0000E+00  0.0000E+00  0.0000E+00  0.0000E+00  0.0000E+00
                3.8386E+05  0.0000E+00  0.0000E+00  0.0000E+00  9.0000E+01  9.0000E+01  9.0000E+01  0.0000E+00  7.2509E-02
 ----------------------------------------------------------------------------------------------------------------------------------
 ----------------------------------------------------------------------------------------------------------------------------------

          step     eng_tot    temp_tot     eng_cfg     eng_src     eng_cou     eng_bnd     eng_ang     eng_dih     eng_tet
      time(ps)      eng_pv    temp_rot     vir_cfg     vir_src     vir_cou     vir_bnd     vir_ang     vir_con     vir_tet
      cpu  (s)      volume    temp_shl     eng_shl     vir_shl       alpha        beta       gamma     vir_pmf       press

 ----------------------------------------------------------------------------------------------------------------------------------
            16 -1.1056E+05  2.9896E+02 -1.1180E+05 -1.1180E+05  0.0000E+00  0.0000E+00  0.0000E+00  0.0000E+00  0.0000E+00
       0.01600 -1.1056E+05  0.0000E+00  2.3844E+03  2.3844E+03  0.0000E+00  0.0000E+00  0.0000E+00  0.0000E+00  0.0000E+00
         0.745  3.8386E+05  0.0000E+00  0.0000E+00  0.0000E+00  9.0000E+01  9.0000E+01  9.0000E+01  0.0000E+00  1.2187E-01

       rolling -1.1057E+05  2.9954E+02 -1.1181E+05 -1.1181E+05  0.0000E+00  0.0000E+00  0.0000E+00  0.0000E+00  0.0000E+00
      averages -1.1057E+05  0.0000E+00  2.4208E+03  2.4208E+03  0.0000E+00  0.0000E+00  0.0000E+00  0.0000E+00  0.0000E+00
                3.8386E+05  0.0000E+00  0.0000E+00  0.0000E+00  9.0000E+01  9.0000E+01  9.0000E+01  0.0000E+00  7.8342E-02
 ----------------------------------------------------------------------------------------------------------------------------------
            18 -1.1056E+05  2.9861E+02 -1.1180E+05 -1.1180E+05  0.0000E+00  0.0000E+00  0.0000E+00  0.0000E+00  0.0000E+00
       0.01800 -1.1056E+05  0.0000E+00  2.3740E+03  2.3740E+03  0.0000E+00  0.0000E+00  0.0000E+00  0.0000E+00  0.0000E+00
         0.814  3.8386E+05  0.0000E+00  0.0000E+00  0.0000E+00  9.0000E+01  9.0000E+01  9.0000E+01  0.0000E+00  1.3222E-01

       rolling -1.1057E+05  2.9944E+02 -1.1181E+05 -1.1181E+05  0.0000E+00  0.0000E+00  0.0000E+00  0.0000E+00  0.0000E+00
      averages -1.1057E+05  0.0000E+00  2.4159E+03  2.4159E+03  0.0000E+00  0.0000E+00  0.0000E+00  0.0000E+00  0.0000E+00
                3.8386E+05  0.0000E+00  0.0000E+00  0.0000E+00  9.0000E+01  9.0000E+01  9.0000E+01  0.0000E+00  8.4024E-02
 ----------------------------------------------------------------------------------------------------------------------------------
            20 -1.1056E+05  2.9829E+02 -1.1180E+05 -1.1180E+05  0.0000E+00  0.0000E+00  0.0000E+00  0.0000E+00  0.0000E+00
       0.02000 -1.1056E+05  0.0000E+00  2.3641E+03  2.3641E+03  0.0000E+00  0.0000E+00  0.0000E+00  0.0000E+00  0.0000E+00
         0.882  3.8386E+05  0.0000E+00  0.0000E+00  0.0000E+00  9.0000E+01  9.0000E+01  9.0000E+01  0.0000E+00  1.4206E-01

       rolling -1.1057E+05  2.9934E+02 -1.1181E+05 -1.1181E+05  0.0000E+00  0.0000E+00  0.0000E+00  0.0000E+00  0.0000E+00
      averages -1.1057E+05  0.0000E+00  2.4110E+03  2.4110E+03  0.0000E+00  0.0000E+00  0.0000E+00  0.0000E+00  0.0000E+00
                3.8386E+05  0.0000E+00  0.0000E+00  0.0000E+00  9.0000E+01  9.0000E+01  9.0000E+01  0.0000E+00  8.9572E-02
 ----------------------------------------------------------------------------------------------------------------------------------


 run terminating...  elapsed cpu time:        0.882 sec, job time:      600.000 sec, close time:      100.000 sec



 sample of final configuration on node zero

        i       x(i)        y(i)        z(i)       vx(i)       vy(i)       vz(i)       fx(i)       fy(i)       fz(i)


        1 -3.5336E+01 -3.5344E+01 -3.5529E+01 -4.9589E+00 -9.1929E-01 -1.5643E+00  6.0662E+03 -2.6979E+03  7.2105E+03
      201 -2.8300E+01 -3.5401E+01 -2.4397E+01  1.2994E+00  6.1585E-01 -1.2017E+00  1.0414E+04  1.0274E+02 -7.9603E+03
      401 -2.0904E+01 -3.1835E+01 -2.8143E+01 -2.5706E+00 -1.1584E+00  1.7062E+00 -3.2273E+03 -6.4579E+01  1.2143E+02
      689 -6.2178E+00 -2.4596E+01 -2.8300E+01  1.6465E+00 -3.5180E-02 -2.9499E+00 -5.2935E+03  8.6091E+02  7.2969E+03
     1441 -3.5417E+01 -1.3650E+01 -2.8095E+01  1.6628E-01 -1.2155E+00 -3.4727E+00  1.4557E+03  7.7856E+02 -2.1389E+03
     1641 -1.3610E+01 -1.3597E+01 -3.1812E+01  6.6441E-02  8.1256E-01 -3.2664E+00 -4.0496E+03 -4.0812E+02  1.0090E+04
     1889 -6.3021E+00 -1.3534E+01 -3.1713E+01  1.1860E+00  9.8676E-02  1.6839E+00 -4.7173E+03 -2.4973E+03 -2.0546E+03
     2777 -2.8147E+01 -2.7171E+00 -2.4475E+01  5.0588E-01  2.7023E+00  8.6236E-01 -8.1822E+02 -5.3638E+03 -5.9749E+02
     6401 -3.5282E+01 -3.5324E+01 -2.0997E+01 -3.1628E+00  7.3633E-02 -1.7683E+00 -1.8974E+03 -2.8901E+03  7.0118E+03
     6601 -2.8273E+01 -3.5477E+01 -9.8739E+00  2.3430E+00 -2.6692E+00 -1.8399E+00  7.6300E+03  4.9572E+03 -8.4400E+03
     6801 -2.0831E+01 -3.1836E+01 -1.3650E+01  1.0494E+00 -1.1153E+00 -3.9749E-01 -3.2917E+03  5.6312E+02  1.9627E+02
     7089 -6.3121E+00 -2.4599E+01 -1.3769E+01 -2.4891E+00 -1.3433E-01 -3.3859E+00  1.6837E+02  1.0830E+03  5.0397E+03
     7841 -3.5448E+01 -1.3706E+01 -1.3498E+01 -1.5968E+00 -3.5449E+00 -5.9857E-01 -4.0755E+02  5.0081E+03 -4.1924E+03
     8041 -1.3623E+01 -1.3635E+01 -1.7238E+01 -4.3939E-01 -5.1958E-01 -2.4014E+00 -2.5188E+03  4.2277E+03  5.3070E+02
     8289 -6.3265E+00 -1.3533E+01 -1.7187E+01  3.6520E-01  4.3151E-02  1.1612E+00 -9.2973E+02 -3.6685E+03 -2.7653E+03
     9177 -2.8173E+01 -2.7548E+00 -9.9043E+00 -3.9537E-01  8.9301E-01  1.8538E+00  2.7444E+03 -4.7748E+03 -7.4578E+03
    12801 -3.5194E+01 -3.5333E+01 -6.3742E+00  3.7128E-01 -8.1011E-01  1.9406E+00 -9.5853E+03 -6.8613E+03  7.5155E+02
    13129 -1.3529E+01 -3.5485E+01 -2.7111E+00  5.7525E-01  2.9211E-01 -3.3091E+00 -2.1379E+03  3.5891E+03 -3.0845E+03
    14161 -3.5536E+01 -1.7273E+01 -2.6907E+00 -1.6442E+00  2.0804E-01  9.8680E-01  5.5676E+03 -1.1520E+03 -6.5868E+01
    14641 -6.3322E+00 -1.0031E+01 -6.3600E+00 -1.4228E+00  6.8881E-01 -1.5445E-01 -3.1388E+02 -4.5633E+01 -2.6987E+03


 run terminated after       20 steps (     0.020 ps), final averages calculated over       10 steps (     0.010 ps).


 ----------------------------------------------------------------------------------------------------------------------------------

          step     eng_tot    temp_tot     eng_cfg     eng_src     eng_cou     eng_bnd     eng_ang     eng_dih     eng_tet
      time(ps)      eng_pv    temp_rot     vir_cfg     vir_src     vir_cou     vir_bnd     vir_ang     vir_con     vir_tet
      cpu  (s)      volume    temp_shl     eng_shl     vir_shl       alpha        beta       gamma     vir_pmf       press

 ----------------------------------------------------------------------------------------------------------------------------------
            10 -1.1056E+05  2.9906E+02 -1.1180E+05 -1.1180E+05  0.0000E+00  0.0000E+00  0.0000E+00  0.0000E+00  0.0000E+00
       0.01000 -1.1056E+05  0.0000E+00  2.3877E+03  2.3877E+03  0.0000E+00  0.0000E+00  0.0000E+00  0.0000E+00  0.0000E+00
         0.949  3.8386E+05  0.0000E+00  0.0000E+00  0.0000E+00  9.0000E+01  9.0000E+01  9.0000E+01  0.0000E+00  1.1843E-01

       r.m.s.   1.7732E-02  4.9861E-01  2.0798E+00  2.0798E+00  0.0000E+00  0.0000E+00  0.0000E+00  0.0000E+00  0.0000E+00
      fluctu-   1.7732E-02  0.0000E+00  1.5406E+01  1.5406E+01  0.0000E+00  0.0000E+00  0.0000E+00  0.0000E+00  0.0000E+00
      ations    1.9191E+00  0.0000E+00  0.0000E+00  0.0000E+00  0.0000E+00  0.0000E+00  0.0000E+00  0.0000E+00  1.5492E-02
 ----------------------------------------------------------------------------------------------------------------------------------

 Extended energy:         0.0000E+00      r.m.s. fluctuations:    0.0000E+00

 <P*V> term:              7.2676E+01      r.m.s. fluctuations:    1.2111E-04

 ----------------------------------------------------------------------------------------------------------------------------------


            Approximate 3D Diffusion Coefficients and square root of MSDs

            atom         DC (10^-9 m^2 s^-1)   Sqrt[MSD] (Ang)

            Cu                1.1079E-03          2.1215E-02


                Average pressure tensor  (katms)                              r.m.s. fluctuations

          -7.8432E-02  2.5699E-01  3.0944E-01                          2.1727E-02  3.6747E-02  2.4109E-02
           2.5699E-01  4.8057E-01  4.3916E-01                          3.6747E-02  6.9352E-02  3.3419E-02
           3.0944E-01  4.3916E-01 -4.6852E-02                          2.4109E-02  3.3419E-02  2.2469E-03

            trace/3    1.1843E-01


                Average cell vectors     (Angs)                               r.m.s. fluctuations

       72.6760607795        0.0000000000        0.0000000000           1.2111E-04  0.0000E+00  0.0000E+00
        0.0000000000       72.6760607795        0.0000000000           0.0000E+00  1.2111E-04  0.0000E+00
        0.0000000000        0.0000000000       72.6760607795           0.0000E+00  0.0000E+00  1.2111E-04



 time elapsed since job start:        0.949 sec



 *************************************************************************************************************************
 **************                                                                                             **************
 **************  Thank you for using the DL_POLY_4 package in your work.  Please, acknowledge our efforts   **************
 **************                                                                                             **************
 **************  by including the following references when publishing data obtained using DL_POLY_4:       **************
 **************                                                                                             **************
 **************  I.T. Todorov, W. Smith, K. Trachenko & M.T. Dove, `J. Mater. Chem.', 16, 1911-1918 (2006)  **************
 **************                                                                                             **************
 *************************************************************************************************************************

