 ******************************************************************
 *************  stfc/ccp5  program  library  package  ** D ********
 *************  daresbury laboratory general purpose  *** L *******
 **         **  classical molecular dynamics program  **** \ ******
 ** DL_POLY **  authors:   i.t.todorov   &   w.smith  ***** P *****
 **         **  version: 4.08    /      march  2016   ****** O ****
 *************  execution on            8 process(es) ******* L ***
 *************  contributors' list:                   ******** Y **
 *************  ------------------------------------  *************
 *************  i.j.bush, h.a.boateng, r.davidchak,   *************
 *************  m.a.seaton, a.v.brukhno, a.m.elena    *************
 ******************************************************************

 ******************************************************************
 *** birthday:  Mar 14 2016@15:05:29                           ****
 ***  machine:  lapito.dl.ac.uk                                ****
 ***  builder:  dr faustroll                                   ****
 *** compiler:  gfortran                                       ****
 ***  version:  5.3.1 20151207 [gcc-5-branch revision 231355]  ****
 ***      MPI:  3.0                                            ****
 ***  library: Open MPI v1.10.1, package: Open MPI alin@lapito ****
 ***  library:  Distribution, ident: 1.10.1, repo rev: v1.10.0 ****
 ***  library: -178-gb80f802, Nov 03, 2015                     ****
 ******************************************************************

 ******************************************************************
 ****  ~~~~~~~~~~~~~~~~~~~~~~~~~~~~~~~~~~~~~~~~~~~~~~~~~~~~~~  ****
 ****  Please do cite `J. Mater. Chem.', 16, 1911-1918 (2006)  ****
 ****  ^^^^^^^^^^^^^^^^^^^^^^^^^^^^^^^^^^^^^^^^^^^^^^^^^^^^^^  ****
 ****  when publishing research data obtained using DL_POLY_4  ****
 ****  ^^^^^^^^^^^^^^^^^^^^^^^^^^^^^^^^^^^^^^^^^^^^^^^^^^^^^^  ****
 ******************************************************************


 I/O read method: parallel by using MPI-I/O (assumed)
 I/O readers (assumed)                   4
 I/O read batch size (assumed)     2000000
 I/O read buffer size (assumed)      20000
 I/O parallel read error checking off (assumed)

 I/O write method: parallel by using MPI-I/O (assumed)
 I/O write type: data sorting on (assumed)
 I/O writers (assumed)                   8
 I/O write batch size (assumed)    2000000
 I/O write buffer size (assumed)     20000
 I/O parallel write error checking off (assumed)


 node/domain decomposition (x,y,z):      2     2     2

 cutoffs driven limit on largest possible decomposition:   729 nodes/domains (9,9,9)

 cutoffs driven limit on largest balanced decomposition:    64 nodes/domains (4,4,4)

 link-cell decomposition 1 (x,y,z):      4     4     4

 *** pre-scanning stage (set_bounds) DONE ***

 time elapsed since job start:        0.134 sec

 **********************************************************************************************************************************
 **********************************************************************************************************************************
 **********************************************************************************************************************************
 ************************     Cu3Au ALLOY (32000 ATOMS)                                                    ************************
 **********************************************************************************************************************************
 **********************************************************************************************************************************
 **********************************************************************************************************************************


 SIMULATION CONTROL PARAMETERS

 simulation pressure (katms)         1.0000E-03

 simulation temperature (K)          3.0000E+02

 Integration : Velocity Verlet
 Ensemble : NVT Nose-Hoover
 thermostat relaxation time (ps)     2.0000E-01

 scaled restart requested (starting a new simulation)

 equilibration period (steps)           10

 selected number of timesteps           20

 temperature scaling on (during equilibration)
 temperature scaling interval            7

 real space cutoff (Angs)            8.2000E+00

 data printing interval (steps)          2

 statistics file interval                2

 Electrostatics switched off!!!

 vdw potential terms switched off

 fixed simulation timestep (ps)      1.0000E-03

 data dumping interval (steps)         500

 subcelling threshold density        5.0000E+01

 allocated job run time   (s)        1.0000E+03

 allocated job close time (s)        1.0000E+01


 SYSTEM SPECIFICATION

 energy units = eV


 number of molecular types               1


 molecular species type                  1

 name of species:             Copper-Gold                             

 number of molecules                  8000

 number of atoms/sites                   4

 atomic characteristics:

               site    name             mass         charge      repeat      freeze

                  1    Au           196.967000       0.000000         1         0
                  2    Cu            63.546000       0.000000         3         0


 total number of molecules            8000

 total number of sites                   4


 number of specified metal potentials              3

       pair     atom 1  atom 2     key                              parameters

          1     Cu      Cu         gupt        0.085500       2.556000      10.960000       1.224000       2.278000       0.000000       0.000000       0.000000       0.000000
          2     Cu      Au         gupt        0.153900       2.556000      11.050000       1.560500       3.047500       0.000000       0.000000       0.000000       0.000000
          3     Au      Au         gupt        0.206100       2.884000      10.229000       1.790000       4.036000       0.000000       0.000000       0.000000       0.000000

 configuration file name: 

          Cu3Au ALLOY (32000 ATOMS)                                               


 selected image convention               3


 simulation cell vectors

       75.6122544500        0.0000000000        0.0000000000
        0.0000000000       75.6122544500        0.0000000000
        0.0000000000        0.0000000000       75.6122544500


 system volume            432291.365841    

 *** all reading and connectivity checks DONE ***

 time elapsed since job start:        0.152 sec


 long-range correction to metal energy       5.188841E-05
 lr correction for metal atom density        2.351111E+01
 1st partial lr correction to metal virial  -1.573558E-03

 density dependent energy and virial corrections

                         Au         6.505912E-02   8.331831E+00
                         Cu         1.888229E+01   1.491229E+02

 *** initialisation and haloing DONE ***

 time elapsed since job start:        0.158 sec

 //==============================================================\\
 ||                                                              ||
 ||           SUMMARY  OF  TOPOLOGICAL  DECOMPOSITION            ||
 ||                                                              ||
 ||--------------------------------------------------------------||
 ||  INTERACTION  OR  TYPE  |  GRAND TOTAL | Fully/Partly FROZEN ||
 ||-------------------------+--------------+---------------------||
 ||  all particles/sites    |       32000  |  F            0     ||
 ||  free particles         |       32000  |  F            0     ||
 ||  core-shell units       |           0  |  P            0     ||
 ||  constraint bond units  |           0  |  F            0     ||
 ||  PMF units              |           0  |  P         NONE     ||
 ||  rigid body units       |           0  |  F            0     ||
 ||  tethered atom units    |           0  |  F            0     ||
 ||  chemical bond units    |           0  |  F            0     ||
 ||  bond angle units       |           0  |  F            0     ||
 ||  dihedral angle units   |           0  |  F            0     ||
 ||  inversion angle units  |           0  |  F            0     ||
 \\==============================================================//


 *** bookkeeping DONE ***

 time elapsed since job start:        0.158 sec


 degrees of freedom break-down list
 ----------------------------------
 free particles               96000
 centre of mass                  -3
 non-periodicity                  0
 frozen free particles            0
 shell-pseudo                     0
 constrained                      0
 RB translational                 0
 RB rotational                    0
 ----------------------------------
 total (real)                 95997

 *** temperature setting DONE ***

 time elapsed since job start:        0.159 sec


 sample of starting configuration on node zero

        i       x(i)        y(i)        z(i)       vx(i)       vy(i)       vz(i)


        3 -3.5927E+01 -3.7613E+01 -3.5914E+01 -6.1324E-01  4.0267E+00  5.2437E-01
      572 -3.0074E+01 -9.5779E+00 -3.5773E+01  1.9375E+00  1.8173E+00  3.5551E+00
     1852 -3.0381E+01 -2.4543E+01 -3.1993E+01  5.4941E-01 -1.2053E+00 -1.2548E+00
     2252 -3.0270E+01 -5.7235E+00 -3.2061E+01 -3.2692E+00  1.2321E+00  1.2839E+00
     3450 -2.8359E+01 -2.4385E+01 -3.0098E+01 -1.2685E+00 -2.2005E+00  6.1914E-01
     3853 -2.6402E+01 -7.3638E+00 -3.0160E+01  6.9707E-01  2.3189E+00 -4.0343E-01
     5058 -2.0921E+01 -2.4492E+01 -2.6562E+01  3.7143E+00  1.0882E+00 -9.4541E-02
     5461 -1.8906E+01 -7.5263E+00 -2.6613E+01 -3.8862E-01  1.6305E+00  1.1213E+00
     6660 -2.2676E+01 -2.4426E+01 -2.0888E+01 -1.3592E+00 -1.2762E+00  4.2909E-01
     7064 -1.8922E+01 -5.6388E+00 -2.0915E+01  9.2913E-01  4.2089E-02  2.3472E+00
     8258 -2.0826E+01 -2.4709E+01 -1.9045E+01  3.3306E+00 -2.3223E-01  8.2534E-02
     8660 -2.2645E+01 -5.9197E+00 -1.7184E+01  1.4639E+00 -3.4181E+00 -2.4976E+00
     9859 -2.0771E+01 -2.6981E+01 -1.3439E+01  1.2205E-01  1.3904E+00 -1.2735E+00
    10264 -1.8853E+01 -5.6821E+00 -1.3353E+01  1.7763E+00 -1.8937E+00 -2.1531E+00
    11463 -1.7083E+01 -2.6325E+01 -9.7010E+00 -1.9262E+00 -4.7973E-02 -6.5684E-01
    11862 -1.7121E+01 -5.6712E+00 -1.1460E+01 -1.1013E+00 -2.6309E+00  1.1293E+00
    13060 -2.2855E+01 -2.4788E+01 -5.5837E+00  1.8632E-02  1.5890E+00 -9.8815E-01
    13457 -2.2596E+01 -7.7357E+00 -7.4602E+00 -3.5081E-01  5.2334E-01 -1.2942E+00
    14654 -2.4683E+01 -2.4733E+01 -3.7969E+00 -1.4728E+00  1.2232E+00  3.8813E+00
    15054 -2.4533E+01 -5.9590E+00 -3.6723E+00 -3.3091E+00  1.0450E+00  1.5238E+00



 time elapsed since job start:        0.159 sec

 forces evaluated at (re)start for VV integration...

 ----------------------------------------------------------------------------------------------------------------------------------

          step     eng_tot    temp_tot     eng_cfg     eng_src     eng_cou     eng_bnd     eng_ang     eng_dih     eng_tet
      time(ps)      eng_pv    temp_rot     vir_cfg     vir_src     vir_cou     vir_bnd     vir_ang     vir_con     vir_tet
      cpu  (s)      volume    temp_shl     eng_shl     vir_shl       alpha        beta       gamma     vir_pmf       press

 ----------------------------------------------------------------------------------------------------------------------------------
             0 -1.1327E+05  3.0000E+02 -1.1451E+05 -1.1451E+05  0.0000E+00  0.0000E+00  0.0000E+00  0.0000E+00  0.0000E+00
       0.00000 -1.4080E+05  0.0000E+00  8.5053E+04  8.5053E+04  0.0000E+00  0.0000E+00  0.0000E+00  0.0000E+00  0.0000E+00
         0.299  4.3229E+05  0.0000E+00  0.0000E+00  0.0000E+00  9.0000E+01  9.0000E+01  9.0000E+01  0.0000E+00 -1.0068E+02

       rolling  0.0000E+00  0.0000E+00  0.0000E+00  0.0000E+00  0.0000E+00  0.0000E+00  0.0000E+00  0.0000E+00  0.0000E+00
      averages  0.0000E+00  0.0000E+00  0.0000E+00  0.0000E+00  0.0000E+00  0.0000E+00  0.0000E+00  0.0000E+00  0.0000E+00
                0.0000E+00  0.0000E+00  0.0000E+00  0.0000E+00  0.0000E+00  0.0000E+00  0.0000E+00  0.0000E+00  0.0000E+00
 ----------------------------------------------------------------------------------------------------------------------------------
 ----------------------------------------------------------------------------------------------------------------------------------

          step     eng_tot    temp_tot     eng_cfg     eng_src     eng_cou     eng_bnd     eng_ang     eng_dih     eng_tet
      time(ps)      eng_pv    temp_rot     vir_cfg     vir_src     vir_cou     vir_bnd     vir_ang     vir_con     vir_tet
      cpu  (s)      volume    temp_shl     eng_shl     vir_shl       alpha        beta       gamma     vir_pmf       press

 ----------------------------------------------------------------------------------------------------------------------------------
             1 -1.1327E+05  3.0004E+02 -1.1451E+05 -1.1451E+05  0.0000E+00  0.0000E+00  0.0000E+00  0.0000E+00  0.0000E+00
       0.00100 -1.4080E+05  0.0000E+00  8.5054E+04  8.5054E+04  0.0000E+00  0.0000E+00  0.0000E+00  0.0000E+00  0.0000E+00
         0.444  4.3229E+05  0.0000E+00  0.0000E+00  0.0000E+00  9.0000E+01  9.0000E+01  9.0000E+01  0.0000E+00 -1.0068E+02

       rolling -1.1327E+05  3.0004E+02 -1.1451E+05 -1.1451E+05  0.0000E+00  0.0000E+00  0.0000E+00  0.0000E+00  0.0000E+00
      averages -1.4080E+05  0.0000E+00  8.5054E+04  8.5054E+04  0.0000E+00  0.0000E+00  0.0000E+00  0.0000E+00  0.0000E+00
                4.3229E+05  0.0000E+00  0.0000E+00  0.0000E+00  9.0000E+01  9.0000E+01  9.0000E+01  0.0000E+00 -1.0068E+02
 ----------------------------------------------------------------------------------------------------------------------------------
             2 -1.1327E+05  3.0012E+02 -1.1451E+05 -1.1451E+05  0.0000E+00  0.0000E+00  0.0000E+00  0.0000E+00  0.0000E+00
       0.00200 -1.4080E+05  0.0000E+00  8.5057E+04  8.5057E+04  0.0000E+00  0.0000E+00  0.0000E+00  0.0000E+00  0.0000E+00
         0.590  4.3229E+05  0.0000E+00  0.0000E+00  0.0000E+00  9.0000E+01  9.0000E+01  9.0000E+01  0.0000E+00 -1.0068E+02

       rolling -1.1327E+05  3.0008E+02 -1.1451E+05 -1.1451E+05  0.0000E+00  0.0000E+00  0.0000E+00  0.0000E+00  0.0000E+00
      averages -1.4080E+05  0.0000E+00  8.5056E+04  8.5056E+04  0.0000E+00  0.0000E+00  0.0000E+00  0.0000E+00  0.0000E+00
                4.3229E+05  0.0000E+00  0.0000E+00  0.0000E+00  9.0000E+01  9.0000E+01  9.0000E+01  0.0000E+00 -1.0068E+02
 ----------------------------------------------------------------------------------------------------------------------------------
             4 -1.1327E+05  3.0016E+02 -1.1452E+05 -1.1452E+05  0.0000E+00  0.0000E+00  0.0000E+00  0.0000E+00  0.0000E+00
       0.00400 -1.4080E+05  0.0000E+00  8.5066E+04  8.5066E+04  0.0000E+00  0.0000E+00  0.0000E+00  0.0000E+00  0.0000E+00
         0.854  4.3229E+05  0.0000E+00  0.0000E+00  0.0000E+00  9.0000E+01  9.0000E+01  9.0000E+01  0.0000E+00 -1.0069E+02

       rolling -1.1327E+05  3.0008E+02 -1.1452E+05 -1.1452E+05  0.0000E+00  0.0000E+00  0.0000E+00  0.0000E+00  0.0000E+00
      averages -1.4080E+05  0.0000E+00  8.5060E+04  8.5060E+04  0.0000E+00  0.0000E+00  0.0000E+00  0.0000E+00  0.0000E+00
                4.3229E+05  0.0000E+00  0.0000E+00  0.0000E+00  9.0000E+01  9.0000E+01  9.0000E+01  0.0000E+00 -1.0068E+02
 ----------------------------------------------------------------------------------------------------------------------------------
             6 -1.1327E+05  3.0061E+02 -1.1452E+05 -1.1452E+05  0.0000E+00  0.0000E+00  0.0000E+00  0.0000E+00  0.0000E+00
       0.00600 -1.4081E+05  0.0000E+00  8.5080E+04  8.5080E+04  0.0000E+00  0.0000E+00  0.0000E+00  0.0000E+00  0.0000E+00
         1.100  4.3229E+05  0.0000E+00  0.0000E+00  0.0000E+00  9.0000E+01  9.0000E+01  9.0000E+01  0.0000E+00 -1.0070E+02

       rolling -1.1327E+05  3.0022E+02 -1.1452E+05 -1.1452E+05  0.0000E+00  0.0000E+00  0.0000E+00  0.0000E+00  0.0000E+00
      averages -1.4080E+05  0.0000E+00  8.5065E+04  8.5065E+04  0.0000E+00  0.0000E+00  0.0000E+00  0.0000E+00  0.0000E+00
                4.3229E+05  0.0000E+00  0.0000E+00  0.0000E+00  9.0000E+01  9.0000E+01  9.0000E+01  0.0000E+00 -1.0069E+02
 ----------------------------------------------------------------------------------------------------------------------------------
             8 -1.1327E+05  3.0122E+02 -1.1452E+05 -1.1452E+05  0.0000E+00  0.0000E+00  0.0000E+00  0.0000E+00  0.0000E+00
       0.00800 -1.4081E+05  0.0000E+00  8.5098E+04  8.5098E+04  0.0000E+00  0.0000E+00  0.0000E+00  0.0000E+00  0.0000E+00
         1.345  4.3229E+05  0.0000E+00  0.0000E+00  0.0000E+00  9.0000E+01  9.0000E+01  9.0000E+01  0.0000E+00 -1.0072E+02

       rolling -1.1327E+05  3.0043E+02 -1.1452E+05 -1.1452E+05  0.0000E+00  0.0000E+00  0.0000E+00  0.0000E+00  0.0000E+00
      averages -1.4080E+05  0.0000E+00  8.5072E+04  8.5072E+04  0.0000E+00  0.0000E+00  0.0000E+00  0.0000E+00  0.0000E+00
                4.3229E+05  0.0000E+00  0.0000E+00  0.0000E+00  9.0000E+01  9.0000E+01  9.0000E+01  0.0000E+00 -1.0069E+02
 ----------------------------------------------------------------------------------------------------------------------------------
            10 -1.1328E+05  3.0000E+02 -1.1452E+05 -1.1452E+05  0.0000E+00  0.0000E+00  0.0000E+00  0.0000E+00  0.0000E+00
       0.01000 -1.4083E+05  0.0000E+00  8.5119E+04  8.5119E+04  0.0000E+00  0.0000E+00  0.0000E+00  0.0000E+00  0.0000E+00
         1.590  4.3229E+05  0.0000E+00  0.0000E+00  0.0000E+00  9.0000E+01  9.0000E+01  9.0000E+01  0.0000E+00 -1.0076E+02

       rolling -1.1328E+05  3.0050E+02 -1.1452E+05 -1.1452E+05  0.0000E+00  0.0000E+00  0.0000E+00  0.0000E+00  0.0000E+00
      averages -1.4081E+05  0.0000E+00  8.5080E+04  8.5080E+04  0.0000E+00  0.0000E+00  0.0000E+00  0.0000E+00  0.0000E+00
                4.3229E+05  0.0000E+00  0.0000E+00  0.0000E+00  9.0000E+01  9.0000E+01  9.0000E+01  0.0000E+00 -1.0070E+02
 ----------------------------------------------------------------------------------------------------------------------------------

 switching off temperature scaling at step 10

 ----------------------------------------------------------------------------------------------------------------------------------
            12 -1.1328E+05  3.0087E+02 -1.1453E+05 -1.1453E+05  0.0000E+00  0.0000E+00  0.0000E+00  0.0000E+00  0.0000E+00
       0.01200 -1.4083E+05  0.0000E+00  8.5144E+04  8.5144E+04  0.0000E+00  0.0000E+00  0.0000E+00  0.0000E+00  0.0000E+00
         1.835  4.3229E+05  0.0000E+00  0.0000E+00  0.0000E+00  9.0000E+01  9.0000E+01  9.0000E+01  0.0000E+00 -1.0078E+02

       rolling -1.1328E+05  3.0052E+02 -1.1452E+05 -1.1452E+05  0.0000E+00  0.0000E+00  0.0000E+00  0.0000E+00  0.0000E+00
      averages -1.4081E+05  0.0000E+00  8.5090E+04  8.5090E+04  0.0000E+00  0.0000E+00  0.0000E+00  0.0000E+00  0.0000E+00
                4.3229E+05  0.0000E+00  0.0000E+00  0.0000E+00  9.0000E+01  9.0000E+01  9.0000E+01  0.0000E+00 -1.0072E+02
 ----------------------------------------------------------------------------------------------------------------------------------
            14 -1.1328E+05  3.0185E+02 -1.1453E+05 -1.1453E+05  0.0000E+00  0.0000E+00  0.0000E+00  0.0000E+00  0.0000E+00
       0.01400 -1.4084E+05  0.0000E+00  8.5172E+04  8.5172E+04  0.0000E+00  0.0000E+00  0.0000E+00  0.0000E+00  0.0000E+00
         2.082  4.3229E+05  0.0000E+00  0.0000E+00  0.0000E+00  9.0000E+01  9.0000E+01  9.0000E+01  0.0000E+00 -1.0080E+02

       rolling -1.1328E+05  3.0068E+02 -1.1452E+05 -1.1452E+05  0.0000E+00  0.0000E+00  0.0000E+00  0.0000E+00  0.0000E+00
      averages -1.4082E+05  0.0000E+00  8.5101E+04  8.5101E+04  0.0000E+00  0.0000E+00  0.0000E+00  0.0000E+00  0.0000E+00
                4.3229E+05  0.0000E+00  0.0000E+00  0.0000E+00  9.0000E+01  9.0000E+01  9.0000E+01  0.0000E+00 -1.0073E+02
 ----------------------------------------------------------------------------------------------------------------------------------
 ----------------------------------------------------------------------------------------------------------------------------------

          step     eng_tot    temp_tot     eng_cfg     eng_src     eng_cou     eng_bnd     eng_ang     eng_dih     eng_tet
      time(ps)      eng_pv    temp_rot     vir_cfg     vir_src     vir_cou     vir_bnd     vir_ang     vir_con     vir_tet
      cpu  (s)      volume    temp_shl     eng_shl     vir_shl       alpha        beta       gamma     vir_pmf       press

 ----------------------------------------------------------------------------------------------------------------------------------
            16 -1.1328E+05  3.0294E+02 -1.1454E+05 -1.1454E+05  0.0000E+00  0.0000E+00  0.0000E+00  0.0000E+00  0.0000E+00
       0.01600 -1.4085E+05  0.0000E+00  8.5201E+04  8.5201E+04  0.0000E+00  0.0000E+00  0.0000E+00  0.0000E+00  0.0000E+00
         2.328  4.3229E+05  0.0000E+00  0.0000E+00  0.0000E+00  9.0000E+01  9.0000E+01  9.0000E+01  0.0000E+00 -1.0083E+02

       rolling -1.1328E+05  3.0093E+02 -1.1452E+05 -1.1452E+05  0.0000E+00  0.0000E+00  0.0000E+00  0.0000E+00  0.0000E+00
      averages -1.4082E+05  0.0000E+00  8.5112E+04  8.5112E+04  0.0000E+00  0.0000E+00  0.0000E+00  0.0000E+00  0.0000E+00
                4.3229E+05  0.0000E+00  0.0000E+00  0.0000E+00  9.0000E+01  9.0000E+01  9.0000E+01  0.0000E+00 -1.0074E+02
 ----------------------------------------------------------------------------------------------------------------------------------
            18 -1.1328E+05  3.0410E+02 -1.1454E+05 -1.1454E+05  0.0000E+00  0.0000E+00  0.0000E+00  0.0000E+00  0.0000E+00
       0.01800 -1.4085E+05  0.0000E+00  8.5232E+04  8.5232E+04  0.0000E+00  0.0000E+00  0.0000E+00  0.0000E+00  0.0000E+00
         2.574  4.3229E+05  0.0000E+00  0.0000E+00  0.0000E+00  9.0000E+01  9.0000E+01  9.0000E+01  0.0000E+00 -1.0085E+02

       rolling -1.1328E+05  3.0125E+02 -1.1452E+05 -1.1452E+05  0.0000E+00  0.0000E+00  0.0000E+00  0.0000E+00  0.0000E+00
      averages -1.4082E+05  0.0000E+00  8.5125E+04  8.5125E+04  0.0000E+00  0.0000E+00  0.0000E+00  0.0000E+00  0.0000E+00
                4.3229E+05  0.0000E+00  0.0000E+00  0.0000E+00  9.0000E+01  9.0000E+01  9.0000E+01  0.0000E+00 -1.0075E+02
 ----------------------------------------------------------------------------------------------------------------------------------
            20 -1.1328E+05  3.0531E+02 -1.1455E+05 -1.1455E+05  0.0000E+00  0.0000E+00  0.0000E+00  0.0000E+00  0.0000E+00
       0.02000 -1.4086E+05  0.0000E+00  8.5263E+04  8.5263E+04  0.0000E+00  0.0000E+00  0.0000E+00  0.0000E+00  0.0000E+00
         2.820  4.3229E+05  0.0000E+00  0.0000E+00  0.0000E+00  9.0000E+01  9.0000E+01  9.0000E+01  0.0000E+00 -1.0088E+02

       rolling -1.1328E+05  3.0162E+02 -1.1453E+05 -1.1453E+05  0.0000E+00  0.0000E+00  0.0000E+00  0.0000E+00  0.0000E+00
      averages -1.4083E+05  0.0000E+00  8.5138E+04  8.5138E+04  0.0000E+00  0.0000E+00  0.0000E+00  0.0000E+00  0.0000E+00
                4.3229E+05  0.0000E+00  0.0000E+00  0.0000E+00  9.0000E+01  9.0000E+01  9.0000E+01  0.0000E+00 -1.0076E+02
 ----------------------------------------------------------------------------------------------------------------------------------


 run terminating...  elapsed cpu time:        2.821 sec, job time:     1000.000 sec, close time:       10.000 sec



 sample of final configuration on node zero

        i       x(i)        y(i)        z(i)       vx(i)       vy(i)       vz(i)       fx(i)       fy(i)       fz(i)


        3 -3.5940E+01 -3.7557E+01 -3.5898E+01 -6.5162E-01  1.5099E+00  9.8732E-01 -2.4292E+02 -8.2534E+03  1.1490E+03
      572 -3.0053E+01 -9.5479E+00 -3.5726E+01  1.8760E-01  1.1356E+00  1.0322E+00 -5.1845E+03 -2.4974E+03 -9.3843E+03
     1852 -3.0352E+01 -2.4562E+01 -3.2017E+01  2.2172E+00 -6.6535E-01 -1.0536E+00  4.0412E+03  1.8372E+03  1.2454E+03
     2252 -3.0327E+01 -5.6832E+00 -3.2046E+01 -2.3506E+00  2.8202E+00  1.0278E-01  3.7953E+03  4.9782E+03 -3.8155E+03
     3450 -2.8396E+01 -2.4426E+01 -3.0116E+01 -2.3394E+00 -1.7870E+00 -2.2806E+00 -2.1006E+03  2.1673E+03 -7.8041E+03
     3853 -2.6393E+01 -7.3255E+00 -3.0173E+01  1.6652E-01  1.4405E+00 -9.6804E-01 -4.9990E+03 -1.0726E+04 -4.9466E+03
     5058 -2.0835E+01 -2.4472E+01 -2.6565E+01  4.7247E+00  8.1696E-01 -1.1116E-01  1.5440E+03 -1.5972E+03 -3.8953E+00
     5461 -1.8914E+01 -7.4933E+00 -2.6589E+01 -3.6843E-01  1.6607E+00  1.2043E+00  7.8097E+01  1.2333E+02 -1.6230E+02
     6660 -2.2704E+01 -2.4456E+01 -2.0873E+01 -1.4015E+00 -1.6540E+00  9.5754E-01  4.1379E+02 -8.7060E+02  1.3578E+03
     7064 -1.8905E+01 -5.6473E+00 -2.0865E+01  6.9585E-01 -8.7922E-01  2.5428E+00 -1.3660E+03 -2.6483E+03 -2.5940E+02
     8258 -2.0756E+01 -2.4699E+01 -1.9037E+01  3.5705E+00  1.1013E+00  6.0423E-01 -3.5335E+02  3.3991E+03  6.3698E+02
     8660 -2.2624E+01 -5.9698E+00 -1.7228E+01  5.5650E-01 -1.5446E+00 -1.6728E+00 -4.3236E+03  6.2385E+03  4.9989E+03
     9859 -2.0769E+01 -2.6929E+01 -1.3463E+01  1.1035E-01  3.6693E+00 -1.1584E+00  2.7762E+02  5.7721E+03  1.6436E+02
    10264 -1.8826E+01 -5.7251E+00 -1.3398E+01  8.4005E-01 -2.2759E+00 -2.3744E+00 -3.6060E+03 -2.4708E+01 -4.7537E+02
    11463 -1.7105E+01 -2.6333E+01 -9.7143E+00 -2.6951E-01 -8.3846E-01 -5.9977E-01  5.6037E+03 -3.3985E+03  1.0295E+03
    11862 -1.7132E+01 -5.7345E+00 -1.1426E+01  8.1809E-02 -3.5287E+00  2.1318E+00  3.9420E+03 -1.1011E+03  2.3464E+03
    13060 -2.2838E+01 -2.4741E+01 -5.6030E+00  1.5535E+00  3.2222E+00 -8.8897E-01  3.3062E+03  5.4443E+03  6.5073E+02
    13457 -2.2601E+01 -7.7264E+00 -7.4884E+00 -1.3191E-01  3.6272E-01 -1.5094E+00  2.1972E+03 -2.6399E+03 -1.5945E+03
    14654 -2.4709E+01 -2.4707E+01 -3.7219E+00 -1.0491E+00  1.3369E+00  3.4069E+00  1.9824E+03 -3.4494E+02 -3.4732E+03
    15054 -2.4592E+01 -5.9217E+00 -3.6467E+00 -2.4336E+00  2.5346E+00  8.1327E-01  4.3048E+03  3.2848E+03 -4.4449E+03


 run terminated after       20 steps (     0.020 ps), final averages calculated over       10 steps (     0.010 ps).


 ----------------------------------------------------------------------------------------------------------------------------------

          step     eng_tot    temp_tot     eng_cfg     eng_src     eng_cou     eng_bnd     eng_ang     eng_dih     eng_tet
      time(ps)      eng_pv    temp_rot     vir_cfg     vir_src     vir_cou     vir_bnd     vir_ang     vir_con     vir_tet
      cpu  (s)      volume    temp_shl     eng_shl     vir_shl       alpha        beta       gamma     vir_pmf       press

 ----------------------------------------------------------------------------------------------------------------------------------
            10 -1.1328E+05  3.0274E+02 -1.1453E+05 -1.1453E+05  0.0000E+00  0.0000E+00  0.0000E+00  0.0000E+00  0.0000E+00
       0.01000 -1.4085E+05  0.0000E+00  8.5195E+04  8.5195E+04  0.0000E+00  0.0000E+00  0.0000E+00  0.0000E+00  0.0000E+00
         2.887  4.3229E+05  0.0000E+00  0.0000E+00  0.0000E+00  9.0000E+01  9.0000E+01  9.0000E+01  0.0000E+00 -1.0082E+02

       r.m.s.   1.5464E-03  1.5700E+00  6.5005E+00  6.5005E+00  0.0000E+00  0.0000E+00  0.0000E+00  0.0000E+00  0.0000E+00
      fluctu-   9.8328E+00  0.0000E+00  4.2464E+01  4.2464E+01  0.0000E+00  0.0000E+00  0.0000E+00  0.0000E+00  0.0000E+00
      ations    0.0000E+00  0.0000E+00  0.0000E+00  0.0000E+00  0.0000E+00  0.0000E+00  0.0000E+00  0.0000E+00  3.5942E-02
 ----------------------------------------------------------------------------------------------------------------------------------

 Extended energy:         7.4553E-03      r.m.s. fluctuations:    5.3883E-03

 ----------------------------------------------------------------------------------------------------------------------------------


            Approximate 3D Diffusion Coefficients and square root of MSDs

            atom         DC (10^-9 m^2 s^-1)   Sqrt[MSD] (Ang)

            Au                4.6617E-03          1.2271E-02
            Cu                0.0000E+00          2.1195E-02


                Average pressure tensor  (katms)                              r.m.s. fluctuations

          -1.0087E+02 -5.1192E-02 -5.2846E-02                          3.6456E-02  5.2905E-03  4.0619E-03
          -5.1192E-02 -1.0080E+02  1.3221E-01                          5.2905E-03  3.9934E-02  1.2484E-03
          -5.2846E-02  1.3221E-01 -1.0080E+02                          4.0619E-03  1.2484E-03  3.1439E-02

            trace/3   -1.0082E+02



 time elapsed since job start:        2.887 sec



 *************************************************************************************************************************
 **************                                                                                             **************
 **************  Thank you for using the DL_POLY_4 package in your work.  Please, acknowledge our efforts   **************
 **************                                                                                             **************
 **************  by including the following references when publishing data obtained using DL_POLY_4:       **************
 **************                                                                                             **************
 **************  I.T. Todorov, W. Smith, K. Trachenko & M.T. Dove, `J. Mater. Chem.', 16, 1911-1918 (2006)  **************
 **************                                                                                             **************
 *************************************************************************************************************************

